 Single Point Energy
GAUSSIAN             31 MOL ORBITALS    210 PRIMITIVES        6 NUCLEI   B3LYP
  C    1    (CENTRE  1)  -2.63206814  0.05302736  0.37754192  CHARGE =  6.0
  H    2    (CENTRE  2)  -1.79702220 -0.99494098  1.92398132  CHARGE =  1.0
  H    3    (CENTRE  3)  -2.27339141 -0.87035774 -1.41291001  CHARGE =  1.0
  H    4    (CENTRE  4)  -1.96091519  1.98589098  0.35388687  CHARGE =  1.0
  Br   5    (CENTRE  5)   3.58566308 -0.07297609 -0.51443823  CHARGE = 35.0
  Cl   6    (CENTRE  6)  -6.09849825  0.12443569  0.87500755  CHARGE = 17.0
CENTRE ASSIGNMENTS    1  1  1  1  1  1  1  1  1  1  1  1  1  1  1  1  1  1  1  1
CENTRE ASSIGNMENTS    1  1  1  1  1  1  1  1  1  1  1  1  1  1  1  1  2  2  2  2
CENTRE ASSIGNMENTS    2  2  2  2  2  3  3  3  3  3  3  3  3  3  4  4  4  4  4  4
CENTRE ASSIGNMENTS    4  4  4  5  5  5  5  5  5  5  5  5  5  5  5  5  5  5  5  5
CENTRE ASSIGNMENTS    5  5  5  5  5  5  5  5  5  5  5  5  5  5  5  5  5  5  5  5
CENTRE ASSIGNMENTS    5  5  5  5  5  5  5  5  5  5  5  5  5  5  5  5  5  5  5  5
CENTRE ASSIGNMENTS    5  5  5  5  5  5  5  5  5  5  5  5  5  5  5  5  5  5  5  5
CENTRE ASSIGNMENTS    5  5  5  5  5  5  5  5  5  5  5  5  5  5  5  5  5  6  6  6
CENTRE ASSIGNMENTS    6  6  6  6  6  6  6  6  6  6  6  6  6  6  6  6  6  6  6  6
CENTRE ASSIGNMENTS    6  6  6  6  6  6  6  6  6  6  6  6  6  6  6  6  6  6  6  6
CENTRE ASSIGNMENTS    6  6  6  6  6  6  6  6  6  6
TYPE ASSIGNMENTS      1  1  1  1  1  1  1  1  1  2  2  2  3  3  3  4  4  4  1  2
TYPE ASSIGNMENTS      3  4  1  2  3  4  1  2  3  4  5  6  7  8  9 10  1  1  1  1
TYPE ASSIGNMENTS      1  1  2  3  4  1  1  1  1  1  1  2  3  4  1  1  1  1  1  1
TYPE ASSIGNMENTS      2  3  4  1  1  1  1  1  1  1  1  1  1  1  1  1  1  1  1  2
TYPE ASSIGNMENTS      3  4  2  2  2  3  3  3  4  4  4  2  2  2  3  3  3  4  4  4
TYPE ASSIGNMENTS      2  2  2  3  3  3  4  4  4  2  3  4  2  3  4  2  3  4  2  3
TYPE ASSIGNMENTS      4  5  5  5  5  6  6  6  6  7  7  7  7  8  8  8  8  9  9  9
TYPE ASSIGNMENTS      9 10 10 10 10  5  6  7  8  9 10  5  6  7  8  9 10  1  1  1
TYPE ASSIGNMENTS      1  1  1  1  1  1  1  1  1  1  1  2  3  4  2  2  2  2  2  3
TYPE ASSIGNMENTS      3  3  3  3  4  4  4  4  4  2  2  3  3  4  4  2  3  4  2  3
TYPE ASSIGNMENTS      4  2  3  4  5  6  7  8  9 10
EXPONENTS  0.4563240D+04 0.6820240D+03 0.1549730D+03 0.4445530D+02 0.1302900D+02
EXPONENTS  0.1827730D+01 0.2096420D+02 0.4803310D+01 0.1459330D+01 0.2096420D+02
EXPONENTS  0.4803310D+01 0.1459330D+01 0.2096420D+02 0.4803310D+01 0.1459330D+01
EXPONENTS  0.2096420D+02 0.4803310D+01 0.1459330D+01 0.4834560D+00 0.4834560D+00
EXPONENTS  0.4834560D+00 0.4834560D+00 0.1455850D+00 0.1455850D+00 0.1455850D+00
EXPONENTS  0.1455850D+00 0.4380000D-01 0.4380000D-01 0.4380000D-01 0.4380000D-01
EXPONENTS  0.6260000D+00 0.6260000D+00 0.6260000D+00 0.6260000D+00 0.6260000D+00
EXPONENTS  0.6260000D+00 0.3386500D+02 0.5094790D+01 0.1158790D+01 0.3258400D+00
EXPONENTS  0.1027410D+00 0.3600000D-01 0.7500000D+00 0.7500000D+00 0.7500000D+00
EXPONENTS  0.3386500D+02 0.5094790D+01 0.1158790D+01 0.3258400D+00 0.1027410D+00
EXPONENTS  0.3600000D-01 0.7500000D+00 0.7500000D+00 0.7500000D+00 0.3386500D+02
EXPONENTS  0.5094790D+01 0.1158790D+01 0.3258400D+00 0.1027410D+00 0.3600000D-01
EXPONENTS  0.7500000D+00 0.7500000D+00 0.7500000D+00 0.4397000D+06 0.6603000D+05
EXPONENTS  0.1514000D+05 0.4317000D+04 0.1414000D+04 0.5239000D+03 0.5239000D+03
EXPONENTS  0.2077000D+03 0.8654000D+02 0.3052000D+02 0.1298000D+02 0.4412000D+01
EXPONENTS  0.1862000D+01 0.3932000D+00 0.1400000D+00 0.3500000D-01 0.3500000D-01
EXPONENTS  0.3500000D-01 0.3500000D-01 0.2957000D+04 0.7003000D+03 0.2246000D+03
EXPONENTS  0.2957000D+04 0.7003000D+03 0.2246000D+03 0.2957000D+04 0.7003000D+03
EXPONENTS  0.2246000D+03 0.8259000D+02 0.3319000D+02 0.1420000D+02 0.8259000D+02
EXPONENTS  0.3319000D+02 0.1420000D+02 0.8259000D+02 0.3319000D+02 0.1420000D+02
EXPONENTS  0.1420000D+02 0.7438000D+01 0.3526000D+01 0.1420000D+02 0.7438000D+01
EXPONENTS  0.3526000D+01 0.1420000D+02 0.7438000D+01 0.3526000D+01 0.1595000D+01
EXPONENTS  0.1595000D+01 0.1595000D+01 0.8462000D+00 0.8462000D+00 0.8462000D+00
EXPONENTS  0.3186000D+00 0.3186000D+00 0.3186000D+00 0.1096000D+00 0.1096000D+00
EXPONENTS  0.1096000D+00 0.1348000D+03 0.3639000D+02 0.1216000D+02 0.4341000D+01
EXPONENTS  0.1348000D+03 0.3639000D+02 0.1216000D+02 0.4341000D+01 0.1348000D+03
EXPONENTS  0.3639000D+02 0.1216000D+02 0.4341000D+01 0.1348000D+03 0.3639000D+02
EXPONENTS  0.1216000D+02 0.4341000D+01 0.1348000D+03 0.3639000D+02 0.1216000D+02
EXPONENTS  0.4341000D+01 0.1348000D+03 0.3639000D+02 0.1216000D+02 0.4341000D+01
EXPONENTS  0.1535000D+01 0.1535000D+01 0.1535000D+01 0.1535000D+01 0.1535000D+01
EXPONENTS  0.1535000D+01 0.4510000D+00 0.4510000D+00 0.4510000D+00 0.4510000D+00
EXPONENTS  0.4510000D+00 0.4510000D+00 0.1058190D+06 0.1587200D+05 0.3619650D+04
EXPONENTS  0.1030800D+04 0.3399080D+03 0.1245380D+03 0.1245380D+03 0.4951350D+02
EXPONENTS  0.2080560D+02 0.6583460D+01 0.2564680D+01 0.5597630D+00 0.1832730D+00
EXPONENTS  0.4830000D-01 0.4830000D-01 0.4830000D-01 0.4830000D-01 0.5897760D+03
EXPONENTS  0.1398490D+03 0.4514130D+02 0.1687330D+02 0.2771520D+01 0.5897760D+03
EXPONENTS  0.1398490D+03 0.4514130D+02 0.1687330D+02 0.2771520D+01 0.5897760D+03
EXPONENTS  0.1398490D+03 0.4514130D+02 0.1687330D+02 0.2771520D+01 0.6741100D+01
EXPONENTS  0.2771520D+01 0.6741100D+01 0.2771520D+01 0.6741100D+01 0.2771520D+01
EXPONENTS  0.1023870D+01 0.1023870D+01 0.1023870D+01 0.3813680D+00 0.3813680D+00
EXPONENTS  0.3813680D+00 0.1094370D+00 0.1094370D+00 0.1094370D+00 0.7500000D+00
EXPONENTS  0.7500000D+00 0.7500000D+00 0.7500000D+00 0.7500000D+00 0.7500000D+00
MO    1     MO 0.0        OCC NO =    2.0000000  ORB. ENERGY = -482.553574
  0.48474669D-07  0.90240096D-07  0.14844411D-06  0.19933553D-06  0.18768191D-06
  0.15423072D-07 -0.10781625D-06 -0.28648796D-06  0.38620578D-09  0.30673989D-05
  0.28703296D-05  0.22231813D-05 -0.62669877D-07 -0.58643565D-07 -0.45421707D-07
 -0.44014356D-06 -0.41186592D-06 -0.31900608D-06 -0.46610870D-07 -0.23572218D-05
  0.47340904D-07  0.33807052D-06  0.19106516D-05  0.26411992D-05 -0.54872925D-07
 -0.37915398D-06  0.54672932D-05  0.47950900D-06 -0.98874316D-08 -0.68817528D-07
 -0.47080960D-06  0.24221981D-06  0.22858979D-06  0.28368470D-07  0.20475365D-06
 -0.40078780D-08  0.22340569D-06  0.40299199D-06  0.59411641D-06 -0.18891683D-05
 -0.19403104D-05 -0.17679031D-05 -0.11701221D-05 -0.70509530D-06  0.13476079D-05
  0.22342265D-06  0.40302259D-06  0.59416153D-06 -0.18892537D-05 -0.19406862D-05
 -0.17676874D-05 -0.15077106D-05 -0.61723356D-06 -0.10152028D-05  0.22331869D-06
  0.40283505D-06  0.59388505D-06 -0.18887037D-05 -0.19383813D-05 -0.17690203D-05
 -0.12848681D-05  0.14013319D-05  0.23580113D-06  0.38584361D+01  0.71955611D+01
  0.12109068D+02  0.19065834D+02  0.25289926D+02  0.16475088D+02  0.96359575D+01
  0.16238836D+02  0.34607842D+01  0.81715390D-01 -0.11299516D-01  0.24763215D-02
 -0.63660138D-03  0.67425186D-04 -0.18679694D-04  0.23446814D-05 -0.35081737D-06
  0.71800704D-08  0.50340313D-07 -0.13196976D-03 -0.17650014D-03 -0.20387128D-03
  0.26564354D-05  0.35527929D-05  0.41037499D-05  0.18916575D-04  0.25299570D-04
  0.29222955D-04 -0.35774711D-04 -0.16873728D-04 -0.29820750D-05  0.72207808D-06
  0.34057994D-06  0.60190310D-07  0.51287345D-05  0.24190515D-05  0.42751626D-06
  0.26235063D-05  0.54806294D-05  0.34923871D-05 -0.52834709D-07 -0.11037422D-06
 -0.70333070D-07 -0.37626384D-06 -0.78603305D-06 -0.50087891D-06 -0.91159924D-05
  0.18354680D-06  0.13074931D-05  0.71599716D-05 -0.14418206D-06 -0.10269618D-05
 -0.30582075D-05  0.61634032D-07  0.43865543D-06  0.14929372D-05 -0.30146170D-07
 -0.21415174D-06 -0.32768060D-04 -0.24426286D-04 -0.11322709D-04 -0.26475233D-05
  0.16887394D-04  0.12588366D-04  0.58352877D-05  0.13644314D-05  0.15880666D-04
  0.11837920D-04  0.54874217D-05  0.12830919D-05  0.19919153D-05  0.14848329D-05
  0.68828847D-06  0.16093849D-06  0.14247392D-04  0.10620430D-04  0.49230588D-05
  0.11511302D-05 -0.28673147D-06 -0.21373816D-06 -0.99077489D-07 -0.23166713D-07
  0.25625331D-05 -0.13206093D-05 -0.12419238D-05 -0.15569065D-06 -0.11141558D-05
  0.22371082D-07 -0.59800504D-06  0.30818299D-06  0.28982204D-06  0.36332231D-07
  0.26000424D-06 -0.52186393D-08  0.63747407D-07  0.11904230D-06  0.20264307D-06
  0.31413071D-06  0.42300944D-06  0.32061473D-06 -0.23179769D-06 -0.53995291D-06
 -0.13170722D-06  0.85710499D-06 -0.80575559D-06  0.46591474D-06  0.43551739D-07
  0.17762497D-05  0.10084689D-06 -0.20732786D-08 -0.14473451D-07 -0.63723152D-06
 -0.81601592D-06 -0.87312829D-06 -0.69475954D-06 -0.15990263D-06  0.15693410D-07
  0.20096421D-07  0.21502955D-07  0.17110181D-07  0.39379997D-08  0.91969194D-07
  0.11777246D-06  0.12601527D-06  0.10027199D-06  0.23078136D-07  0.53664923D-06
 -0.11151584D-06 -0.13343299D-07  0.27727408D-08 -0.77477700D-07  0.16099885D-07
  0.12052786D-06 -0.30470166D-08 -0.17412316D-07  0.16297185D-06 -0.31004292D-08
 -0.23333525D-07  0.72606441D-06 -0.15000622D-07 -0.10420712D-06  0.58336251D-06
 -0.30066241D-06 -0.28270010D-06 -0.36546023D-07 -0.25382267D-06  0.52619746D-08
MO    2     MO 0.0        OCC NO =    2.0000000  ORB. ENERGY = -101.417916
  0.18999750D-05  0.35369798D-05  0.58182985D-05  0.78129983D-05  0.73562324D-05
  0.60451059D-06 -0.44845534D-05 -0.11916298D-04  0.16064002D-07 -0.52482114D-04
 -0.49110328D-04 -0.38037847D-04  0.10796774D-05  0.10103121D-05  0.78252575D-06
  0.75313323D-05  0.70474714D-05  0.54585390D-05 -0.46538861D-05  0.27702386D-04
 -0.56953488D-06 -0.39750355D-05  0.59537156D-04 -0.24889690D-04  0.51086877D-06
  0.35715244D-05 -0.12206339D-03  0.25921130D-04 -0.53278104D-06 -0.37197340D-05
 -0.15026803D-04  0.77438592D-05  0.72829433D-05  0.93799868D-06  0.65385436D-05
 -0.13557089D-06  0.78907266D-06  0.14233745D-05  0.20984292D-05 -0.24453687D-04
  0.30745084D-05  0.31594968D-05  0.14866208D-04 -0.96907006D-05  0.13040102D-04
  0.78908278D-06  0.14233928D-05  0.20984561D-05 -0.24453771D-04  0.30745234D-05
  0.31590504D-05  0.10526038D-04 -0.85562094D-05 -0.17345220D-04  0.78887111D-06
  0.14230109D-05  0.20978932D-05 -0.24452263D-04  0.30750142D-05  0.31619847D-05
  0.13376615D-04  0.17448735D-04 -0.12576847D-05  0.32705016D-07  0.60991278D-07
  0.10263932D-06  0.16160652D-06  0.21436339D-06  0.13964674D-06 -0.11311060D-05
 -0.19061774D-05 -0.40624024D-06  0.68883092D-05 -0.97429846D-05  0.93461412D-05
 -0.66155122D-05  0.47531930D-05 -0.57230032D-05 -0.10930876D-04  0.17525780D-05
 -0.34944537D-07 -0.25133709D-06  0.50006094D-05  0.66879584D-05  0.77251080D-05
 -0.94436156D-07 -0.12630162D-06 -0.14588812D-06 -0.71622851D-06 -0.95790454D-06
 -0.11064536D-05 -0.15499550D-04 -0.73106165D-05 -0.12919970D-05  0.29198141D-06
  0.13771781D-06  0.24338714D-07  0.22198553D-05  0.10470310D-05  0.18504062D-06
  0.18807356D-05  0.39289460D-05  0.25036176D-05 -0.35391717D-07 -0.73934978D-07
 -0.47113122D-07 -0.26935329D-06 -0.56269183D-06 -0.35856059D-06 -0.64854771D-05
  0.12131527D-06  0.92870088D-06  0.45368606D-05 -0.84075607D-07 -0.64952479D-06
 -0.14509749D-05  0.26395000D-07  0.20764163D-06  0.22712902D-05 -0.44895119D-07
 -0.32564372D-06  0.59889072D-04  0.44643095D-04  0.20694132D-04  0.48387886D-05
 -0.30863453D-04 -0.23006535D-04 -0.10664590D-04 -0.24936390D-05 -0.29025619D-04
 -0.21636559D-04 -0.10029543D-04 -0.23451496D-05 -0.38796426D-05 -0.28920009D-05
 -0.13405757D-05 -0.31345903D-06 -0.26080489D-04 -0.19441172D-04 -0.90118794D-05
 -0.21071954D-05  0.55752374D-06  0.41559477D-06  0.19264733D-06  0.45045606D-07
 -0.45299208D-05  0.23344823D-05  0.21954385D-05  0.29378333D-06  0.19727340D-05
 -0.42221514D-07  0.94172894D-06 -0.48533542D-06 -0.45639352D-06 -0.61564327D-07
 -0.41018324D-06  0.88518184D-08  0.12702090D+01  0.23719961D+01  0.40377964D+01
  0.62592610D+01  0.84287412D+01  0.63884593D+01  0.23318112D+01  0.54317550D+01
  0.13249329D+01  0.43928397D-01 -0.57174005D-02  0.69114498D-03 -0.22964517D-03
  0.15223625D-03  0.23202396D-04 -0.47892515D-06 -0.33299113D-05  0.94030840D-03
  0.12041253D-02  0.12884012D-02  0.10251976D-02  0.23595472D-03 -0.19394905D-04
 -0.24836422D-04 -0.26574706D-04 -0.21145839D-04 -0.48668281D-05 -0.13494219D-03
 -0.17280215D-03 -0.18489644D-03 -0.14712450D-03 -0.33861493D-04 -0.19703740D-03
  0.40944419D-04  0.40657409D-05 -0.84486195D-06  0.28277259D-04 -0.58760212D-05
 -0.70481928D-04  0.14542385D-05  0.10114793D-04  0.62209881D-05 -0.12871935D-06
 -0.89277406D-06 -0.19908141D-04  0.41073078D-06  0.28571021D-05 -0.14930138D-04
  0.76932107D-05  0.72369269D-05  0.93243797D-06  0.64962029D-05 -0.13376740D-06
MO    3     MO 0.0        OCC NO =    2.0000000  ORB. ENERGY =  -62.206511
  0.51665085D-06  0.96179351D-06  0.15821413D-05  0.21245502D-05  0.20003441D-05
  0.16438159D-06 -0.13026526D-05 -0.34613917D-05  0.46661979D-08  0.42346707D-04
  0.39626085D-04  0.30691934D-04 -0.86522520D-06 -0.80963761D-06 -0.62709562D-06
 -0.60763696D-05 -0.56859848D-05 -0.44040150D-05 -0.88112140D-06 -0.33283566D-04
  0.66885755D-06  0.47735777D-05  0.26982749D-04  0.37387077D-04 -0.77675585D-06
 -0.53670567D-05  0.78638949D-04  0.67792161D-05 -0.13980047D-06 -0.97293313D-06
 -0.66395017D-05  0.34159188D-05  0.32235829D-05  0.40044771D-06  0.28875616D-05
 -0.56586144D-07  0.30841290D-05  0.55633287D-05  0.82018129D-05 -0.26438879D-04
 -0.27775287D-04 -0.25310444D-04 -0.16454609D-04 -0.97971137D-05  0.18759197D-04
  0.30843640D-05  0.55637526D-05  0.82024379D-05 -0.26440016D-04 -0.27780649D-04
 -0.25307364D-04 -0.21147173D-04 -0.85758117D-05 -0.14084263D-04  0.30829272D-05
  0.55611608D-05  0.81986169D-05 -0.26432685D-04 -0.27747754D-04 -0.25326403D-04
 -0.18049445D-04  0.19482673D-04  0.33048708D-05 -0.12742148D+01 -0.23762712D+01
 -0.39989137D+01 -0.62963251D+01 -0.83517768D+01 -0.54407537D+01 -0.53839903D+01
 -0.90732793D+01 -0.19336769D+01  0.58198684D+01  0.24292561D+01  0.10303698D+00
 -0.10885895D-01  0.97928502D-03 -0.26869806D-03  0.33580608D-04 -0.50078930D-05
  0.10249862D-06  0.71860472D-06 -0.32430574D-02 -0.43373580D-02 -0.50099831D-02
  0.66069973D-04  0.88363876D-04  0.10206709D-03  0.46443401D-03  0.62114736D-03
  0.71747312D-03 -0.47507525D-02 -0.22407701D-02 -0.39600879D-03  0.96706758D-04
  0.45613324D-04  0.80611916D-05  0.68040466D-03  0.32092399D-03  0.56716536D-04
  0.19374615D-04  0.40474491D-04  0.25791306D-04 -0.38636403D-06 -0.80713282D-06
 -0.51432419D-06 -0.27814783D-05 -0.58106404D-05 -0.37026779D-05 -0.11332274D-03
  0.22813104D-05  0.16255938D-04  0.95447864D-04 -0.19227837D-05 -0.13690883D-04
 -0.42620180D-04  0.85916378D-06  0.61132975D-05  0.21128321D-04 -0.42667051D-06
 -0.30307183D-05 -0.25965482D-03 -0.19355442D-03 -0.89721395D-04 -0.20979032D-04
  0.13386235D-03  0.99784975D-04  0.46254935D-04  0.10815523D-04  0.12579247D-03
  0.93769445D-04  0.43466460D-04  0.10163510D-04  0.15977755D-04  0.11910294D-04
  0.55209700D-05  0.12909363D-05  0.11296231D-03  0.84205461D-04  0.39033113D-04
  0.91268857D-05 -0.24050079D-05 -0.17927644D-05 -0.83102892D-06 -0.19431466D-06
  0.33182756D-04 -0.17101293D-04 -0.16081464D-04 -0.20173891D-05 -0.14428152D-04
  0.29109551D-06 -0.82009883D-05  0.42264253D-05  0.39745630D-05  0.49835948D-06
  0.35657041D-05 -0.71655992D-07  0.19021552D-06  0.35520964D-06  0.60466550D-06
  0.93733285D-06  0.12622155D-05  0.95668047D-06 -0.19632201D-05 -0.45731535D-05
 -0.11154998D-05  0.10340478D-04 -0.10512859D-04  0.64569136D-05  0.58034336D-06
  0.24946743D-04  0.13915501D-05 -0.28602393D-07 -0.19971402D-06 -0.72509875D-05
 -0.92853556D-05 -0.99352309D-05 -0.79055925D-05 -0.18195144D-05  0.17889321D-06
  0.22908425D-06  0.24511770D-06  0.19504334D-06  0.44890269D-07  0.10465923D-05
  0.13402287D-05  0.14340303D-05  0.11410766D-05  0.26262489D-06  0.57664148D-05
 -0.11982624D-05 -0.14289522D-06  0.29693662D-07 -0.83243296D-06  0.17297977D-06
  0.14490491D-05 -0.37058007D-07 -0.20943255D-06  0.23631600D-05 -0.45173759D-07
 -0.33838914D-06  0.10294294D-04 -0.21267437D-06 -0.14774693D-05  0.82555856D-05
 -0.42548808D-05 -0.40007047D-05 -0.51717158D-06 -0.35920283D-05  0.74460331D-07
MO    4     MO 0.0        OCC NO =    2.0000000  ORB. ENERGY =  -56.024333
 -0.31125908D-05 -0.57943767D-05 -0.95316951D-05 -0.12799467D-04 -0.12051180D-04
 -0.99032573D-06  0.93660913D-05  0.24887458D-04 -0.33550032D-07 -0.43188798D-05
 -0.40414074D-05 -0.31302263D-05  0.81725127D-07  0.76474583D-07  0.59232520D-07
  0.61907001D-06  0.57929700D-06  0.44868792D-06 -0.26151139D-04 -0.20055578D-04
  0.41620373D-06  0.28789783D-05 -0.13185043D-04  0.13559379D-04 -0.28395824D-06
 -0.19460803D-05 -0.98079069D-04  0.36086449D-04 -0.73909813D-06 -0.51781838D-05
  0.25320277D-04 -0.13044522D-04 -0.12275755D-04 -0.15837416D-05 -0.11018759D-04
  0.22655777D-06 -0.58156388D-05 -0.10490583D-04 -0.15465884D-04  0.26849027D-04
 -0.91171330D-05  0.20165332D-05  0.58437854D-05  0.15522956D-04 -0.26091959D-04
 -0.58142704D-05 -0.10488114D-04 -0.15462245D-04  0.26841552D-04 -0.91107554D-05
  0.20103178D-05  0.13058348D-04  0.13634172D-04  0.24485993D-04 -0.58227339D-05
 -0.10503381D-04 -0.15484752D-04  0.26888840D-04 -0.91350660D-05  0.20370899D-05
  0.83643204D-05 -0.29683209D-04 -0.22997287D-05 -0.51752200D-04 -0.96512191D-04
 -0.16241578D-03 -0.25572508D-03 -0.33920720D-03 -0.22097607D-03 -0.22996181D-03
 -0.38753928D-03 -0.82591500D-04  0.29966486D-03  0.18206558D-04  0.85109966D-04
 -0.58927192D-04  0.32236580D-04 -0.20173856D-04 -0.23128646D-04 -0.44634054D-05
  0.85951525D-07  0.63886930D-06  0.86810176D+02  0.11610242D+03  0.13410725D+03
 -0.17033145D+01 -0.22780616D+01 -0.26313370D+01 -0.12437003D+02 -0.16633604D+02
 -0.19213096D+02  0.11162236D+03  0.52648510D+02  0.93045121D+01 -0.21901574D+01
 -0.10330236D+01 -0.18256510D+00 -0.15991761D+02 -0.75427755D+01 -0.13330263D+01
  0.99091341D-01  0.20700652D+00  0.13190947D+00 -0.19443145D-02 -0.40617654D-02
 -0.25882533D-02 -0.14196494D-01 -0.29657151D-01 -0.18898240D-01 -0.37033823D-01
  0.72675625D-03  0.53057474D-02  0.10335459D-01 -0.20287928D-03 -0.14807538D-02
 -0.10551392D-02  0.20734541D-04  0.15117603D-03  0.12047103D-03 -0.23760236D-05
 -0.17263257D-04 -0.87745859D-03 -0.65408372D-03 -0.30319795D-03 -0.70895014D-04
  0.45210326D-03  0.33701121D-03  0.15622023D-03  0.36528068D-04  0.42535533D-03
  0.31707251D-03  0.14697772D-03  0.34366946D-04  0.53095886D-04  0.39579252D-04
  0.18346808D-04  0.42899273D-05  0.38127143D-03  0.28421106D-03  0.13174492D-03
  0.30805150D-04 -0.75898347D-05 -0.56576885D-05 -0.26225994D-05 -0.61322716D-06
  0.34802540D-04 -0.17931900D-04 -0.16870640D-04 -0.21065807D-05 -0.15130374D-04
  0.30179211D-06 -0.77152762D-05  0.39753907D-05  0.37398855D-05  0.46715461D-06
  0.33545813D-05 -0.67021702D-07  0.12218850D-06  0.22817556D-06  0.38841820D-06
  0.60211330D-06  0.81080773D-06  0.61454160D-06 -0.13512056D-05 -0.31475179D-05
 -0.76775370D-06  0.75240619D-05 -0.82957980D-05  0.77245095D-05 -0.77642316D-05
  0.14476844D-03  0.15254885D-04 -0.31913491D-06 -0.21900891D-05 -0.63427301D-04
 -0.81222736D-04 -0.86907456D-04 -0.69153393D-04 -0.15916024D-04  0.12847919D-05
  0.16452586D-05  0.17604090D-05  0.14007804D-05  0.32239710D-06  0.90945202D-05
  0.11646118D-04  0.12461221D-04  0.99155557D-05  0.22821182D-05  0.47751696D-04
 -0.99228142D-05 -0.96631419D-06  0.20080033D-06 -0.68465064D-05  0.14227057D-05
  0.19089124D-04 -0.38756547D-06 -0.27374456D-05 -0.94419243D-05  0.19119126D-06
  0.13539036D-05  0.13536027D-04 -0.27508137D-06 -0.19417455D-05  0.21933928D-05
 -0.11302812D-05 -0.10631116D-05 -0.13739349D-06 -0.95435318D-06  0.19598239D-07
MO    5     MO 0.0        OCC NO =    2.0000000  ORB. ENERGY =  -56.024253
  0.11597656D-08  0.21590113D-08  0.35515534D-08  0.47691401D-08  0.44903252D-08
  0.36899991D-09 -0.32875312D-08 -0.87355860D-08  0.11776180D-10 -0.34447550D-06
 -0.32234420D-06 -0.24966804D-06  0.56209504D-05  0.52598247D-05  0.40739375D-05
 -0.32375857D-05 -0.30295825D-05 -0.23465288D-05  0.50529395D-08  0.58586758D-07
 -0.81493817D-06  0.46508349D-06  0.28940355D-07 -0.42687289D-06  0.68783329D-05
 -0.39615211D-05  0.35317879D-07  0.85987146D-07 -0.15118658D-05  0.87245221D-06
 -0.35498323D-06  0.55940705D-06 -0.20442382D-06  0.55711037D-05 -0.32215217D-05
  0.25348574D-06 -0.23888893D-06 -0.43092154D-06 -0.63529194D-06 -0.79528301D-06
  0.17145606D-04 -0.17970567D-04  0.85942299D-05  0.40559449D-05 -0.13048457D-04
  0.13442553D-07  0.24248447D-07  0.35748603D-07  0.20033439D-07 -0.75373625D-06
  0.78037096D-06 -0.25363497D-06 -0.51847010D-05  0.21830787D-05  0.23588143D-06
  0.42549644D-06  0.62729390D-06  0.71695973D-06 -0.16416830D-04  0.17189206D-04
 -0.90331560D-05  0.11762497D-04  0.47424820D-05  0.35364864D-07  0.65951602D-07
  0.11098681D-06  0.17474972D-06  0.23179722D-06  0.15100399D-06  0.15374003D-06
  0.25908781D-06  0.55216212D-07 -0.19013195D-06 -0.33939503D-07 -0.32599565D-07
  0.21940105D-07 -0.11236002D-07  0.63562665D-08  0.20375580D-08  0.44763817D-06
 -0.71128223D-05  0.41010035D-05 -0.47790508D+01 -0.63916395D+01 -0.73828367D+01
  0.75873499D+02  0.10147539D+03  0.11721191D+03 -0.43749018D+02 -0.58511191D+02
 -0.67584940D+02 -0.61450224D+01 -0.28984003D+01 -0.51223103D+00  0.97560036D+02
  0.46015787D+02  0.81323183D+01 -0.56253577D+02 -0.26532920D+02 -0.46891332D+01
 -0.54521566D-02 -0.11389814D-01 -0.72578598D-02  0.86559596D-01  0.18082711D+00
  0.11522733D+00 -0.49910665D-01 -0.10426575D+00 -0.66440610D-01  0.20283717D-02
 -0.32201811D-01  0.18567692D-01 -0.56107501D-03  0.89068815D-02 -0.51357320D-02
  0.55218258D-04 -0.87634554D-03  0.50529896D-03 -0.55074736D-05  0.87337585D-04
 -0.50357291D-04  0.42899561D-04  0.31978608D-04  0.14823559D-04  0.34661065D-05
  0.96705668D-05  0.72087280D-05  0.33415777D-05  0.78134168D-06 -0.52570127D-04
 -0.39187336D-04 -0.18165136D-04 -0.42474482D-05 -0.68514587D-03 -0.51072810D-03
 -0.23674602D-03 -0.55356944D-04  0.38874986D-03  0.28978571D-03  0.13432903D-03
  0.31409376D-04  0.83661501D-04  0.62363770D-04  0.28908482D-04  0.67595023D-05
 -0.39824620D-06  0.15839851D-06  0.23984768D-06  0.62954818D-05 -0.35918797D-05
 -0.40065774D-06  0.24722937D-07 -0.66904658D-07  0.42181721D-07 -0.37210160D-06
  0.21713954D-06 -0.60959090D-07  0.64244180D-10  0.11996998D-09  0.20422223D-09
  0.31657868D-09  0.42630589D-09  0.32311323D-09 -0.71923434D-09 -0.16753949D-08
 -0.40866826D-09  0.38602981D-08 -0.39226091D-08  0.33713511D-08 -0.42677913D-08
 -0.34644381D-07  0.46950035D-07 -0.80887452D-06  0.46688343D-06  0.20750859D-05
  0.26572809D-05  0.28432621D-05  0.22624206D-05  0.52070822D-06 -0.33696729D-04
 -0.43150827D-04 -0.46170922D-04 -0.36738803D-04 -0.84556323D-05  0.19432200D-04
  0.24884181D-04  0.26625807D-04  0.21186501D-04  0.48761867D-05 -0.16694469D-05
  0.34691147D-06  0.27124206D-04 -0.56364166D-05 -0.15642105D-04  0.32504333D-05
 -0.52274633D-06  0.84765632D-05 -0.48880840D-05  0.27022917D-06 -0.43885459D-05
  0.25306611D-05 -0.95422868D-07  0.14846656D-05 -0.85599586D-06  0.87422251D-08
  0.40918097D-06 -0.41792319D-06 -0.15784911D-06  0.42514833D-07  0.62107799D-06
MO    6     MO 0.0        OCC NO =    2.0000000  ORB. ENERGY =  -56.024253
  0.12570866D-08  0.23401835D-08  0.38495798D-08  0.51693396D-08  0.48671281D-08
  0.39996431D-09 -0.36028460D-08 -0.95734363D-08  0.12905661D-10  0.86723018D-06
  0.81151378D-06  0.62854879D-06  0.32573758D-05  0.30481012D-05  0.23608722D-05
  0.55459967D-05  0.51896865D-05  0.40196128D-05  0.64537964D-08 -0.11532475D-06
 -0.47208761D-06 -0.79981891D-06  0.26637641D-07  0.10552920D-05  0.39860877D-05
  0.67882449D-05  0.42962047D-07 -0.24284370D-06 -0.87607318D-06 -0.14915889D-05
  0.80374211D-06  0.43169150D-06 -0.12354336D-05  0.29433771D-05  0.50430896D-05
 -0.18698522D-05  0.13038992D-06  0.23520481D-06  0.34675388D-06  0.39718680D-06
 -0.90416017D-05  0.94634699D-05 -0.51207024D-05 -0.75034211D-05  0.35917114D-05
 -0.26968948D-06 -0.48648134D-06 -0.71720173D-06 -0.90056204D-06  0.19365314D-04
 -0.20294884D-04  0.13351574D-04  0.60040526D-05  0.10464697D-04  0.14977129D-06
  0.27016604D-06  0.39829596D-06  0.44627846D-06 -0.10344534D-04  0.10828753D-04
 -0.66273075D-05  0.76623285D-05 -0.35518669D-05  0.16876642D-07  0.31473090D-07
  0.52964566D-07  0.83393179D-07  0.11061710D-06  0.72061361D-07  0.75967193D-07
  0.12802244D-06  0.27283854D-07 -0.10293281D-06  0.24589248D-09 -0.33463671D-07
  0.23491986D-07 -0.12227501D-07  0.70360059D-08  0.41676270D-08 -0.10887623D-05
 -0.41225560D-05 -0.70301888D-05  0.11607814D+02  0.15524623D+02  0.17932137D+02
  0.43976296D+02  0.58815159D+02  0.67936046D+02  0.74999652D+02  0.10030668D+03
  0.11586196D+03  0.14925616D+02  0.70399111D+01  0.12441556D+01  0.56545817D+02
  0.26670760D+02  0.47134934D+01  0.96436421D+02  0.45485816D+02  0.80386571D+01
  0.13242646D-01  0.27664516D-01  0.17628486D-01  0.50169961D-01  0.10480743D+00
  0.66785783D-01  0.85562673D-01  0.17874449D+00  0.11390023D+00 -0.49264379D-02
 -0.18664181D-01 -0.31830932D-01  0.13625895D-02  0.51624330D-02  0.88042954D-02
 -0.13404823D-03 -0.50793043D-03 -0.86625063D-03  0.13353955D-04  0.50620904D-04
  0.86330883D-04 -0.10443094D-03 -0.77845924D-04 -0.36085174D-04 -0.84375864D-05
  0.48919744D-05  0.36466231D-05  0.16903779D-05  0.39525124D-06  0.99538961D-04
  0.74199301D-04  0.34394796D-04  0.80423352D-05 -0.39277864D-03 -0.29278888D-03
 -0.13572114D-03 -0.31734885D-04 -0.65923640D-03 -0.49141441D-03 -0.22779323D-03
 -0.53263566D-04  0.78745828D-04  0.58699482D-04  0.27209915D-04  0.63623363D-05
  0.93604904D-06  0.14060937D-06 -0.10766584D-05  0.35110264D-05  0.59322682D-05
 -0.12036242D-05 -0.50004282D-07 -0.51250440D-07  0.10125472D-06 -0.18496438D-06
 -0.32224185D-06  0.18214476D-06  0.40026616D-10  0.74745949D-10  0.12723837D-09
  0.19724080D-09  0.26560510D-09  0.20131207D-09 -0.44982824D-09 -0.10478364D-08
 -0.25559197D-09  0.23873526D-08 -0.23617035D-08  0.19831172D-08 -0.26310280D-08
 -0.45329679D-07 -0.12893714D-06 -0.46877244D-06 -0.79867231D-06 -0.51891850D-05
 -0.66450849D-05 -0.71101697D-05 -0.56576545D-05 -0.13021395D-05 -0.19530431D-04
 -0.25009972D-04 -0.26760402D-04 -0.21293600D-04 -0.49008361D-05 -0.33296269D-04
 -0.42638013D-04 -0.45622217D-04 -0.36302191D-04 -0.83551437D-05  0.41781011D-05
 -0.86821043D-06  0.15721027D-04 -0.32668333D-05  0.26801733D-04 -0.55694066D-05
  0.13044184D-05  0.49129685D-05  0.83758325D-05 -0.67566642D-06 -0.25435655D-05
 -0.43361752D-05  0.22433652D-06  0.86062051D-06  0.14684452D-05 -0.48044147D-07
  0.30141692D-06 -0.25337277D-06 -0.25103598D-06 -0.34392144D-06 -0.77282782D-06
MO    7     MO 0.0        OCC NO =    2.0000000  ORB. ENERGY =  -10.090526
  0.43814566D+00  0.81564882D+00  0.13417346D+01  0.18017244D+01  0.16963915D+01
  0.13940378D+00  0.37087692D+00  0.98548942D+00 -0.13285086D-02 -0.32714998D-02
 -0.30613178D-02 -0.23711089D-02  0.66966846D-04  0.62664468D-04  0.48536053D-04
  0.46945509D-03  0.43929430D-03  0.34025042D-03  0.79205324D-02  0.16728573D-02
 -0.34371366D-04 -0.24009551D-03 -0.15038610D-02  0.59515585D-04 -0.12193237D-05
 -0.85366593D-05 -0.71246520D-03 -0.63233397D-04  0.12965487D-05  0.90747300D-05
 -0.11875995D-02  0.61203242D-03  0.57556707D-03  0.74286728D-04  0.51676959D-03
 -0.10665617D-04  0.56172479D-04  0.10132714D-03  0.14938291D-03 -0.12792868D-02
  0.72489941D-03  0.34914223D-04  0.80558506D-03 -0.12199038D-02  0.18295787D-02
  0.56170663D-04  0.10132386D-03  0.14937808D-03 -0.12792730D-02  0.72489604D-03
  0.34925667D-04  0.24948084D-03 -0.10744640D-02 -0.20658561D-02  0.56166999D-04
  0.10131725D-03  0.14936834D-03 -0.12793999D-02  0.72494812D-03  0.34854677D-04
  0.61429861D-03  0.22600325D-02 -0.33276040D-05 -0.44012447D-07 -0.82078398D-07
 -0.13812583D-06 -0.21748035D-06 -0.28847737D-06 -0.18792819D-06  0.61660810D-06
  0.10391285D-05  0.22145672D-06 -0.57882089D-05  0.99823172D-05 -0.10190429D-04
  0.40677919D-05  0.13550794D-04  0.99522171D-05  0.92591006D-04 -0.16144118D-04
  0.32662070D-06  0.23158180D-05  0.16162611D-03  0.21616340D-03  0.24968540D-03
 -0.32344970D-05 -0.43259090D-05 -0.49967587D-05 -0.23177578D-04 -0.30998358D-04
 -0.35805495D-04  0.58141771D-03  0.27423518D-03  0.48465275D-04 -0.11630726D-04
 -0.54858221D-05 -0.96950318D-06 -0.83376117D-04 -0.39325709D-04 -0.69499885D-05
 -0.81370239D-04 -0.16998630D-03 -0.10831930D-03  0.16276925D-05  0.34003269D-05
  0.21667690D-05  0.11668616D-04  0.24376294D-04  0.15533153D-04  0.34749518D-03
 -0.69544779D-05 -0.49832130D-04 -0.28264269D-03  0.56596261D-05  0.40532671D-04
  0.87749626D-04 -0.17511823D-05 -0.12582612D-04 -0.21862660D-04  0.42583588D-06
  0.31328810D-05 -0.11647034D-02 -0.86820453D-03 -0.40245282D-03 -0.94103202D-04
  0.59989978D-03  0.44718313D-03  0.20728999D-03  0.48469414D-04  0.56480361D-03
  0.42102140D-03  0.19516283D-03  0.45633789D-04  0.73102974D-04  0.54493130D-04
  0.25260078D-04  0.59064171D-05  0.50698014D-03  0.37791807D-03  0.17518244D-03
  0.40961892D-04 -0.10449191D-04 -0.77891376D-05 -0.36106243D-05 -0.84425128D-06
  0.11247676D-03 -0.57933302D-04 -0.54543460D-04 -0.70604363D-05 -0.48959702D-04
  0.10092514D-05 -0.35381796D-04  0.18224455D-04  0.17157341D-04  0.22220741D-05
  0.15401270D-04 -0.31770108D-06 -0.11573060D-04 -0.21611604D-04 -0.36788955D-04
 -0.57029045D-04 -0.76795498D-04 -0.58206190D-04 -0.50914877D-04 -0.11860185D-03
 -0.28929784D-04  0.14945726D-03 -0.10545436D-03 -0.96234917D-05  0.22298696D-03
  0.11082206D-03  0.10013830D-04 -0.19609839D-06 -0.14352632D-05 -0.15240781D-02
 -0.19516800D-02 -0.20882766D-02 -0.16616689D-02 -0.38244199D-03  0.31418877D-04
  0.40233891D-04  0.43049832D-04  0.34255311D-04  0.78840434D-05  0.21872796D-03
  0.28009521D-03  0.29969887D-03  0.23847429D-03  0.54886135D-04  0.84106145D-03
 -0.17477277D-03 -0.17339038D-04  0.36030563D-05 -0.12070469D-03  0.25082464D-04
  0.24479226D-03 -0.50521819D-05 -0.35134021D-04  0.12816851D-03 -0.26322781D-05
 -0.18390381D-04  0.77799139D-04 -0.16105157D-05 -0.11165911D-04  0.21561577D-03