 Single Point Energy
GAUSSIAN             31 MOL ORBITALS    210 PRIMITIVES        6 NUCLEI   B3LYP
  C    1    (CENTRE  1)   0.17686753  0.65492938  2.61086985  CHARGE =  6.0
  H    2    (CENTRE  2)   1.54651135  1.77844051  1.58621781  CHARGE =  1.0
  H    3    (CENTRE  3)   0.58843324 -1.34201740  2.43499324  CHARGE =  1.0
  H    4    (CENTRE  4)  -1.72667754  1.06881046  1.98373694  CHARGE =  1.0
  Br   5    (CENTRE  5)  -0.23809371 -0.88712740 -3.53294406  CHARGE = 35.0
  Cl   6    (CENTRE  6)   0.40375339  1.50674407  5.99899266  CHARGE = 17.0
CENTRE ASSIGNMENTS    1  1  1  1  1  1  1  1  1  1  1  1  1  1  1  1  1  1  1  1
CENTRE ASSIGNMENTS    1  1  1  1  1  1  1  1  1  1  1  1  1  1  1  1  2  2  2  2
CENTRE ASSIGNMENTS    2  2  2  2  2  3  3  3  3  3  3  3  3  3  4  4  4  4  4  4
CENTRE ASSIGNMENTS    4  4  4  5  5  5  5  5  5  5  5  5  5  5  5  5  5  5  5  5
CENTRE ASSIGNMENTS    5  5  5  5  5  5  5  5  5  5  5  5  5  5  5  5  5  5  5  5
CENTRE ASSIGNMENTS    5  5  5  5  5  5  5  5  5  5  5  5  5  5  5  5  5  5  5  5
CENTRE ASSIGNMENTS    5  5  5  5  5  5  5  5  5  5  5  5  5  5  5  5  5  5  5  5
CENTRE ASSIGNMENTS    5  5  5  5  5  5  5  5  5  5  5  5  5  5  5  5  5  6  6  6
CENTRE ASSIGNMENTS    6  6  6  6  6  6  6  6  6  6  6  6  6  6  6  6  6  6  6  6
CENTRE ASSIGNMENTS    6  6  6  6  6  6  6  6  6  6  6  6  6  6  6  6  6  6  6  6
CENTRE ASSIGNMENTS    6  6  6  6  6  6  6  6  6  6
TYPE ASSIGNMENTS      1  1  1  1  1  1  1  1  1  2  2  2  3  3  3  4  4  4  1  2
TYPE ASSIGNMENTS      3  4  1  2  3  4  1  2  3  4  5  6  7  8  9 10  1  1  1  1
TYPE ASSIGNMENTS      1  1  2  3  4  1  1  1  1  1  1  2  3  4  1  1  1  1  1  1
TYPE ASSIGNMENTS      2  3  4  1  1  1  1  1  1  1  1  1  1  1  1  1  1  1  1  2
TYPE ASSIGNMENTS      3  4  2  2  2  3  3  3  4  4  4  2  2  2  3  3  3  4  4  4
TYPE ASSIGNMENTS      2  2  2  3  3  3  4  4  4  2  3  4  2  3  4  2  3  4  2  3
TYPE ASSIGNMENTS      4  5  5  5  5  6  6  6  6  7  7  7  7  8  8  8  8  9  9  9
TYPE ASSIGNMENTS      9 10 10 10 10  5  6  7  8  9 10  5  6  7  8  9 10  1  1  1
TYPE ASSIGNMENTS      1  1  1  1  1  1  1  1  1  1  1  2  3  4  2  2  2  2  2  3
TYPE ASSIGNMENTS      3  3  3  3  4  4  4  4  4  2  2  3  3  4  4  2  3  4  2  3
TYPE ASSIGNMENTS      4  2  3  4  5  6  7  8  9 10
EXPONENTS  0.4563240D+04 0.6820240D+03 0.1549730D+03 0.4445530D+02 0.1302900D+02
EXPONENTS  0.1827730D+01 0.2096420D+02 0.4803310D+01 0.1459330D+01 0.2096420D+02
EXPONENTS  0.4803310D+01 0.1459330D+01 0.2096420D+02 0.4803310D+01 0.1459330D+01
EXPONENTS  0.2096420D+02 0.4803310D+01 0.1459330D+01 0.4834560D+00 0.4834560D+00
EXPONENTS  0.4834560D+00 0.4834560D+00 0.1455850D+00 0.1455850D+00 0.1455850D+00
EXPONENTS  0.1455850D+00 0.4380000D-01 0.4380000D-01 0.4380000D-01 0.4380000D-01
EXPONENTS  0.6260000D+00 0.6260000D+00 0.6260000D+00 0.6260000D+00 0.6260000D+00
EXPONENTS  0.6260000D+00 0.3386500D+02 0.5094790D+01 0.1158790D+01 0.3258400D+00
EXPONENTS  0.1027410D+00 0.3600000D-01 0.7500000D+00 0.7500000D+00 0.7500000D+00
EXPONENTS  0.3386500D+02 0.5094790D+01 0.1158790D+01 0.3258400D+00 0.1027410D+00
EXPONENTS  0.3600000D-01 0.7500000D+00 0.7500000D+00 0.7500000D+00 0.3386500D+02
EXPONENTS  0.5094790D+01 0.1158790D+01 0.3258400D+00 0.1027410D+00 0.3600000D-01
EXPONENTS  0.7500000D+00 0.7500000D+00 0.7500000D+00 0.4397000D+06 0.6603000D+05
EXPONENTS  0.1514000D+05 0.4317000D+04 0.1414000D+04 0.5239000D+03 0.5239000D+03
EXPONENTS  0.2077000D+03 0.8654000D+02 0.3052000D+02 0.1298000D+02 0.4412000D+01
EXPONENTS  0.1862000D+01 0.3932000D+00 0.1400000D+00 0.3500000D-01 0.3500000D-01
EXPONENTS  0.3500000D-01 0.3500000D-01 0.2957000D+04 0.7003000D+03 0.2246000D+03
EXPONENTS  0.2957000D+04 0.7003000D+03 0.2246000D+03 0.2957000D+04 0.7003000D+03
EXPONENTS  0.2246000D+03 0.8259000D+02 0.3319000D+02 0.1420000D+02 0.8259000D+02
EXPONENTS  0.3319000D+02 0.1420000D+02 0.8259000D+02 0.3319000D+02 0.1420000D+02
EXPONENTS  0.1420000D+02 0.7438000D+01 0.3526000D+01 0.1420000D+02 0.7438000D+01
EXPONENTS  0.3526000D+01 0.1420000D+02 0.7438000D+01 0.3526000D+01 0.1595000D+01
EXPONENTS  0.1595000D+01 0.1595000D+01 0.8462000D+00 0.8462000D+00 0.8462000D+00
EXPONENTS  0.3186000D+00 0.3186000D+00 0.3186000D+00 0.1096000D+00 0.1096000D+00
EXPONENTS  0.1096000D+00 0.1348000D+03 0.3639000D+02 0.1216000D+02 0.4341000D+01
EXPONENTS  0.1348000D+03 0.3639000D+02 0.1216000D+02 0.4341000D+01 0.1348000D+03
EXPONENTS  0.3639000D+02 0.1216000D+02 0.4341000D+01 0.1348000D+03 0.3639000D+02
EXPONENTS  0.1216000D+02 0.4341000D+01 0.1348000D+03 0.3639000D+02 0.1216000D+02
EXPONENTS  0.4341000D+01 0.1348000D+03 0.3639000D+02 0.1216000D+02 0.4341000D+01
EXPONENTS  0.1535000D+01 0.1535000D+01 0.1535000D+01 0.1535000D+01 0.1535000D+01
EXPONENTS  0.1535000D+01 0.4510000D+00 0.4510000D+00 0.4510000D+00 0.4510000D+00
EXPONENTS  0.4510000D+00 0.4510000D+00 0.1058190D+06 0.1587200D+05 0.3619650D+04
EXPONENTS  0.1030800D+04 0.3399080D+03 0.1245380D+03 0.1245380D+03 0.4951350D+02
EXPONENTS  0.2080560D+02 0.6583460D+01 0.2564680D+01 0.5597630D+00 0.1832730D+00
EXPONENTS  0.4830000D-01 0.4830000D-01 0.4830000D-01 0.4830000D-01 0.5897760D+03
EXPONENTS  0.1398490D+03 0.4514130D+02 0.1687330D+02 0.2771520D+01 0.5897760D+03
EXPONENTS  0.1398490D+03 0.4514130D+02 0.1687330D+02 0.2771520D+01 0.5897760D+03
EXPONENTS  0.1398490D+03 0.4514130D+02 0.1687330D+02 0.2771520D+01 0.6741100D+01
EXPONENTS  0.2771520D+01 0.6741100D+01 0.2771520D+01 0.6741100D+01 0.2771520D+01
EXPONENTS  0.1023870D+01 0.1023870D+01 0.1023870D+01 0.3813680D+00 0.3813680D+00
EXPONENTS  0.3813680D+00 0.1094370D+00 0.1094370D+00 0.1094370D+00 0.7500000D+00
EXPONENTS  0.7500000D+00 0.7500000D+00 0.7500000D+00 0.7500000D+00 0.7500000D+00
MO    1     MO 0.0        OCC NO =    2.0000000  ORB. ENERGY = -482.553312
  0.60008888D-07  0.11171211D-06  0.18376538D-06  0.24676606D-06  0.23233955D-06
  0.19092887D-07 -0.13704657D-06 -0.36415840D-06  0.49091096D-09 -0.19863596D-06
 -0.18587432D-06 -0.14396684D-06 -0.74240126D-06 -0.69470467D-06 -0.53807562D-06
 -0.29549785D-05 -0.27651318D-05 -0.21417015D-05  0.32373482D-07  0.14985981D-06
  0.55443593D-06  0.22106054D-05  0.18860513D-05 -0.16567954D-06 -0.62510980D-06
 -0.24843008D-05  0.57944528D-05 -0.26218187D-07 -0.98417064D-07 -0.39148227D-06
  0.25945202D-06  0.21770287D-06 -0.47715489D-06 -0.24871146D-07 -0.10066828D-06
 -0.37177759D-06  0.22892707D-06  0.41295176D-06  0.60879975D-06 -0.18668707D-05
 -0.19487621D-05 -0.17812239D-05  0.11040576D-05  0.12437851D-05  0.97509826D-06
  0.22897822D-06  0.41304404D-06  0.60893578D-06 -0.18670565D-05 -0.19503857D-05
 -0.17802031D-05  0.41240828D-06 -0.10138298D-05  0.15902380D-05  0.22882632D-06
  0.41277004D-06  0.60853184D-06 -0.18664516D-05 -0.19455035D-05 -0.17832189D-05
 -0.12560259D-05  0.72870364D-06  0.12602924D-05  0.38584361D+01  0.71955612D+01
  0.12109068D+02  0.19065834D+02  0.25289926D+02  0.16475088D+02  0.96359576D+01
  0.16238836D+02  0.34607842D+01  0.81714931D-01 -0.11299011D-01  0.24759040D-02
 -0.63632433D-03  0.67259020D-04 -0.18558765D-04  0.23724142D-05  0.23171400D-07
  0.86631436D-07  0.34480555D-06  0.88137668D-05  0.11787784D-04  0.13615800D-04
  0.32764608D-04  0.43820326D-04  0.50615858D-04  0.13058145D-03  0.17464338D-03
  0.20172657D-03  0.23960803D-05  0.11301505D-05  0.19973022D-06  0.88807193D-05
  0.41887365D-05  0.74027070D-06  0.35411169D-04  0.16702257D-04  0.29517712D-05
 -0.17482045D-06 -0.36520822D-06 -0.23271934D-06 -0.64712835D-06 -0.13518819D-05
 -0.86145121D-06 -0.25801273D-05 -0.53900086D-05 -0.34346414D-05  0.60546729D-06
  0.22409891D-05  0.89347035D-05 -0.47351656D-06 -0.17528101D-05 -0.69881533D-05
  0.19929191D-06  0.73812224D-06  0.29424724D-05 -0.95151342D-07 -0.35284800D-06
 -0.14063084D-05  0.15095427D-04  0.11252580D-04  0.52160897D-05  0.12196479D-05
  0.12584175D-04  0.93806183D-05  0.43483489D-05  0.10167491D-05 -0.27679603D-04
 -0.20633199D-04 -0.95644386D-05 -0.22363971D-05 -0.14662933D-05 -0.10930186D-05
 -0.50666450D-06 -0.11847041D-06 -0.58395331D-05 -0.43529616D-05 -0.20177983D-05
 -0.47181005D-06 -0.21541047D-04 -0.16057337D-04 -0.74433157D-05 -0.17404272D-05
 -0.11837398D-05 -0.98688220D-06  0.21706220D-05  0.11496818D-06  0.45792553D-06
  0.16892477D-05  0.27534444D-06  0.22955468D-06 -0.50489912D-06 -0.26741198D-07
 -0.10651331D-06 -0.39293057D-06  0.65122748D-07  0.12161062D-06  0.20701506D-06
  0.32090804D-06  0.43213581D-06  0.32753195D-06 -0.23680043D-06 -0.55160636D-06
 -0.13454977D-06  0.87519506D-06 -0.82192223D-06  0.47788878D-06  0.17924855D-07
  0.14136043D-05 -0.40893299D-08 -0.15281086D-07 -0.60819718D-07  0.34792875D-07
  0.44554513D-07  0.47672852D-07  0.37933908D-07  0.87306921D-08  0.14989150D-06
  0.19194570D-06  0.20537984D-06  0.16342341D-06  0.37612773D-07  0.58327161D-06
  0.74691679D-06  0.79919296D-06  0.63592823D-06  0.14636229D-06 -0.29513232D-07
  0.61328568D-08 -0.12798054D-06  0.26594388D-07 -0.49752425D-06  0.10338566D-06
 -0.59472709D-08 -0.26564190D-07 -0.10281406D-06 -0.11233778D-07 -0.40234983D-07
 -0.16134714D-06 -0.44612816D-07 -0.16792596D-06 -0.66762950D-06 -0.28961124D-06
 -0.24093175D-06  0.53054299D-06  0.27748328D-07  0.11008756D-06  0.41429068D-06
MO    2     MO 0.0        OCC NO =    2.0000000  ORB. ENERGY = -101.419139
  0.19091616D-05  0.35540815D-05  0.58464306D-05  0.78507751D-05  0.73918007D-05
  0.60743347D-06 -0.45073704D-05 -0.11976927D-04  0.16145734D-07  0.34539901D-05
  0.32320837D-05  0.25033738D-05  0.12952704D-04  0.12120540D-04  0.93878264D-05
  0.51530358D-04  0.48219719D-04  0.37348036D-04 -0.45648869D-05 -0.18257214D-05
 -0.68414497D-05 -0.27222341D-04  0.59585458D-04  0.16319393D-05  0.61148049D-05
  0.24329731D-04 -0.12184571D-03 -0.16868877D-05 -0.63247879D-05 -0.25162483D-04
  0.77399772D-05  0.64448824D-05 -0.14184860D-04 -0.74136057D-06 -0.29492862D-05
 -0.11074323D-04  0.79226635D-06  0.14291355D-05  0.21069224D-05 -0.24515619D-04
  0.31075757D-05  0.30569990D-05  0.12056719D-04  0.85023228D-05 -0.16454722D-04
  0.79232403D-06  0.14292395D-05  0.21070758D-05 -0.24515921D-04  0.31072736D-05
  0.30547425D-05  0.32905799D-05 -0.20050870D-04 -0.86830142D-05  0.79206648D-06
  0.14287749D-05  0.21063908D-05 -0.24514220D-04  0.31084124D-05  0.30614815D-05
 -0.17890056D-04  0.20061003D-05 -0.12823258D-04  0.33394637D-07  0.62277345D-07
  0.10480358D-06  0.16501417D-06  0.21888347D-06  0.14259134D-06 -0.11563568D-05
 -0.19487309D-05 -0.41530915D-06  0.70414923D-05 -0.99594307D-05  0.95550741D-05
 -0.67643488D-05  0.48357021D-05 -0.56318954D-05 -0.10569402D-04 -0.11347925D-06
 -0.41750380D-06 -0.16661230D-05 -0.30886107D-06 -0.41307965D-06 -0.47713887D-06
 -0.10952133D-05 -0.14647697D-05 -0.16919220D-05 -0.43981279D-05 -0.58821824D-05
 -0.67943745D-05  0.95561365D-06  0.45073081D-06  0.79657150D-07  0.33827158D-05
  0.15955132D-05  0.28197326D-06  0.13588259D-04  0.64091245D-05  0.11326774D-05
 -0.11618561D-06 -0.24271725D-06 -0.15466519D-06 -0.41104536D-06 -0.85869328D-06
 -0.54717973D-06 -0.16513179D-05 -0.34496815D-05 -0.21982189D-05  0.40443590D-06
  0.14261731D-05  0.57326908D-05 -0.28765473D-06 -0.10095027D-05 -0.40612213D-05
  0.10003941D-06  0.34928738D-06  0.14064394D-05 -0.15655073D-06 -0.57354528D-06
 -0.22905083D-05 -0.25035694D-04 -0.18662351D-04 -0.86508598D-05 -0.20227802D-05
 -0.20784334D-04 -0.15493260D-04 -0.71818403D-05 -0.16792880D-05  0.45820028D-04
  0.34155611D-04  0.15832700D-04  0.37020682D-05  0.23504727D-05  0.17521122D-05
  0.81218479D-06  0.18990845D-06  0.92873584D-05  0.69230731D-05  0.32091635D-05
  0.75038003D-06  0.35950029D-04  0.26798220D-04  0.12422210D-04  0.29046132D-05
  0.18778516D-05  0.15587364D-05 -0.34365879D-05 -0.17615889D-06 -0.69582982D-06
 -0.26968589D-05 -0.37057925D-06 -0.30728980D-06  0.67786905D-06  0.34555661D-07
  0.13620024D-06  0.53273364D-06  0.12702090D+01  0.23719961D+01  0.40377964D+01
  0.62592611D+01  0.84287414D+01  0.63884594D+01  0.23318112D+01  0.54317549D+01
  0.13249329D+01  0.43928428D-01 -0.57174804D-02  0.69117521D-03 -0.22967504D-03
  0.15181494D-03 -0.15148905D-05 -0.56945826D-05 -0.22645829D-04 -0.61927061D-04
 -0.79301581D-04 -0.84851842D-04 -0.67517714D-04 -0.15539563D-04 -0.23267291D-03
 -0.29795262D-03 -0.31880611D-03 -0.25367817D-03 -0.58385389D-04 -0.92536614D-03
 -0.11849908D-02 -0.12679275D-02 -0.10089064D-02 -0.23220521D-03  0.13018982D-04
 -0.27053477D-05  0.48929437D-04 -0.10167549D-04  0.19458738D-03 -0.40435306D-04
  0.46550859D-05  0.17494445D-04  0.69574618D-04 -0.41833165D-06 -0.15752515D-05
 -0.62628308D-05  0.13059111D-05  0.49074372D-05  0.19516603D-04  0.75629355D-05
  0.62996441D-05 -0.13862580D-04 -0.72467076D-06 -0.28829004D-05 -0.10821745D-04
MO    3     MO 0.0        OCC NO =    2.0000000  ORB. ENERGY =  -62.206237
  0.63140736D-06  0.11754234D-05  0.19335605D-05  0.25964472D-05  0.24446529D-05
  0.20089340D-06 -0.16570591D-05 -0.44031163D-05  0.59357083D-08 -0.27426762D-05
 -0.25664692D-05 -0.19878296D-05 -0.10251005D-04 -0.95924151D-05 -0.74296963D-05
 -0.40801898D-04 -0.38180524D-04 -0.29572291D-04  0.22042776D-06  0.21162540D-05
  0.78323829D-05  0.31226766D-04  0.26632338D-04 -0.23451250D-05 -0.88482296D-05
 -0.35164445D-04  0.83315318D-04 -0.37008994D-06 -0.13893160D-05 -0.55263527D-05
  0.36557663D-05  0.30671718D-05 -0.67229381D-05 -0.35037156D-06 -0.14178169D-05
 -0.52385878D-05  0.31611693D-05  0.57022984D-05  0.84066909D-05 -0.26114330D-04
 -0.27900285D-04 -0.25502072D-04  0.15354416D-04  0.17331258D-04  0.13741834D-04
  0.31618732D-05  0.57035681D-05  0.84085627D-05 -0.26116661D-04 -0.27923442D-04
 -0.25487497D-04  0.57436086D-05 -0.14039272D-04  0.22289586D-04  0.31597829D-05
  0.56997975D-05  0.84030040D-05 -0.26109000D-04 -0.27853806D-04 -0.25530558D-04
 -0.17440231D-04  0.10173946D-04  0.17704516D-04 -0.12742149D+01 -0.23762713D+01
 -0.39989140D+01 -0.62963255D+01 -0.83517774D+01 -0.54407541D+01 -0.53839900D+01
 -0.90732789D+01 -0.19336768D+01  0.58198661D+01  0.24292607D+01  0.10303193D+00
 -0.10882294D-01  0.97697778D-03 -0.26699641D-03  0.33976174D-04  0.33075588D-06
  0.12366158D-05  0.49219018D-05  0.22010695D-03  0.29437735D-03  0.34002855D-03
  0.81783555D-03  0.10937967D-02  0.12634196D-02  0.32625239D-02  0.43633930D-02
  0.50400555D-02  0.32213269D-03  0.15193915D-03  0.26852036D-04  0.11966552D-02
  0.56442201D-03  0.99749668D-04  0.47735822D-02  0.22515381D-02  0.39791181D-03
 -0.12746234D-05 -0.26627489D-05 -0.16967668D-05 -0.47054478D-05 -0.98299041D-05
 -0.62638482D-05 -0.18753700D-04 -0.39177370D-04 -0.24964750D-04  0.75052400D-05
  0.27770484D-04  0.11071550D-03 -0.63012760D-05 -0.23323301D-04 -0.92985246D-04
  0.27748793D-05  0.10277458D-04  0.40970270D-04 -0.13462414D-05 -0.49923172D-05
 -0.19897303D-04  0.11020620D-03  0.82150979D-04  0.38080765D-04  0.89042039D-05
  0.91730317D-04  0.68378505D-04  0.31696589D-04  0.74114291D-05 -0.20193652D-03
 -0.15052948D-03 -0.69777354D-04 -0.16315633D-04 -0.10736014D-04 -0.80029438D-05
 -0.37097333D-05 -0.86742537D-06 -0.42645065D-04 -0.31788900D-04 -0.14735620D-04
 -0.34455444D-05 -0.15714086D-03 -0.11713747D-03 -0.54298616D-04 -0.12696330D-04
 -0.15249551D-04 -0.12712865D-04  0.27962416D-04  0.14815722D-05  0.59001663D-05
  0.21760800D-04  0.37701064D-05  0.31431191D-05 -0.69132255D-05 -0.36620274D-06
 -0.14584973D-05 -0.53800358D-05  0.19419600D-06  0.36264281D-06  0.61731881D-06
  0.95694760D-06  0.12886288D-05  0.97670009D-06 -0.20033131D-05 -0.46665466D-05
 -0.11382805D-05  0.10548275D-04 -0.10714768D-04  0.66196840D-05  0.22133949D-06
  0.19776403D-04 -0.55250033D-07 -0.20637829D-06 -0.82144480D-06  0.39222900D-06
  0.50227445D-06  0.53742828D-06  0.42763867D-06  0.98423330D-07  0.16941144D-05
  0.21694224D-05  0.23212587D-05  0.18470558D-05  0.42510977D-06  0.65897065D-05
  0.84385427D-05  0.90291503D-05  0.71846123D-05  0.16535770D-05 -0.31626137D-06
  0.65719189D-07 -0.13682453D-05  0.28432171D-06 -0.53208702D-05  0.11056781D-05
 -0.69333110D-07 -0.31440261D-06 -0.12141855D-05 -0.16229208D-06 -0.58279793D-06
 -0.23360133D-05 -0.63251122D-06 -0.23807603D-05 -0.94653161D-05 -0.40977209D-05
 -0.34090006D-05  0.75067215D-05  0.39261256D-06  0.15576805D-05  0.58618338D-05
MO    4     MO 0.0        OCC NO =    2.0000000  ORB. ENERGY =  -56.024061
  0.29520964D-05  0.54956014D-05  0.90402126D-05  0.12139488D-04  0.11429786D-04
  0.93926159D-06 -0.89495779D-05 -0.23780704D-04  0.32058051D-07 -0.63906904D-07
 -0.59801116D-07 -0.46318276D-07 -0.19526728D-06 -0.18272206D-06 -0.14152530D-06
 -0.80274584D-06 -0.75117232D-06 -0.58181200D-06  0.25351205D-04 -0.14157013D-05
 -0.52991963D-05 -0.21088319D-04  0.96987632D-05  0.10330023D-05  0.39374481D-05
  0.15625664D-04  0.97282770D-04  0.22804681D-05  0.85257745D-05  0.33934311D-04
  0.11666111D-04  0.97160856D-05 -0.21382197D-04 -0.11145926D-05 -0.44324587D-05
 -0.16704165D-04  0.50911056D-05  0.91836282D-05  0.13539089D-04 -0.21312568D-04
  0.84007127D-05 -0.17355882D-05  0.19030842D-04  0.18378350D-04  0.88278999D-06
  0.50845700D-05  0.91718389D-05  0.13521708D-04 -0.21276256D-04  0.83902310D-05
 -0.17242917D-05  0.64079860D-05 -0.22682235D-04  0.12016574D-04  0.51040826D-05
  0.92070367D-05  0.13573599D-04 -0.21384341D-04  0.84124530D-05 -0.17504238D-05
 -0.24124728D-04  0.90744452D-05  0.61867364D-05  0.53258300D-04  0.99320904D-04
  0.16714242D-03  0.26316723D-03  0.34907886D-03  0.22740695D-03  0.23638966D-03
  0.39837171D-03  0.84900083D-04 -0.30725750D-03 -0.20240592D-04 -0.85870161D-04
  0.59401078D-04 -0.32512080D-04  0.19990704D-04  0.21276447D-04 -0.31711667D-06
 -0.11701049D-05 -0.46707472D-05  0.57646363D+01  0.77097898D+01  0.89054021D+01
  0.21275753D+02  0.28454802D+02  0.32867492D+02  0.84898172D+02  0.11354525D+03
  0.13115352D+03  0.74122914D+01  0.34961285D+01  0.61786686D+00  0.27356813D+02
  0.12903289D+02  0.22803837D+01  0.10916387D+03  0.51488923D+02  0.90995796D+01
  0.65800366D-02  0.13746009D-01  0.87592833D-02  0.24285245D-01  0.50733032D-01
  0.32328291D-01  0.96907095D-01  0.20244353D+00  0.12900182D+00 -0.24588148D-02
 -0.90750793D-02 -0.36212688D-01  0.68603691D-03  0.25321674D-02  0.10104099D-01
 -0.69997463D-04 -0.25840925D-03 -0.10310819D-02  0.79792396D-05  0.29475723D-04
  0.11759305D-03 -0.46789320D-03 -0.34878150D-03 -0.16167630D-03 -0.37803830D-04
 -0.39024262D-03 -0.29089845D-03 -0.13484484D-03 -0.31529985D-04  0.85813582D-03
  0.63967995D-03  0.29652114D-03  0.69333815D-04  0.45203514D-04  0.33696043D-04
  0.15619669D-04  0.36522564D-05  0.18062818D-03  0.13464562D-03  0.62414451D-04
  0.14594008D-04  0.66788326D-03  0.49786004D-03  0.23078108D-03  0.53962197D-04
  0.18877873D-04  0.15746232D-04 -0.34624105D-04 -0.18277443D-05 -0.73024315D-05
 -0.26949562D-04 -0.41816000D-05 -0.34881914D-05  0.76697914D-05  0.40535080D-06
  0.16184136D-05  0.59696646D-05 -0.11029943D-06 -0.20597384D-06 -0.35062470D-06
 -0.54352704D-06 -0.73191528D-06 -0.55474605D-06  0.12191334D-05  0.28398671D-05
  0.69271042D-06 -0.67980482D-05  0.75166013D-05 -0.69832521D-05  0.65001241D-05
 -0.14153488D-03  0.97081487D-06  0.36777500D-05  0.14606638D-04 -0.39486506D-05
 -0.50565009D-05 -0.54104017D-05 -0.43051270D-05 -0.99084804D-06 -0.14794827D-04
 -0.18945727D-04 -0.20271725D-04 -0.16130475D-04 -0.37125152D-05 -0.58885268D-04
 -0.75406370D-04 -0.80684008D-04 -0.64201315D-04 -0.14776276D-04  0.29716714D-05
 -0.61751405D-06  0.11134082D-04 -0.23136650D-05  0.44316124D-04 -0.92089014D-05
  0.11879776D-05  0.44512078D-05  0.17715391D-04 -0.57675153D-06 -0.21577406D-05
 -0.85898597D-05  0.90233690D-06  0.33650585D-05  0.13400190D-04  0.13139447D-05
  0.10934497D-05 -0.24073944D-05 -0.12621829D-06 -0.50040310D-06 -0.18790864D-05
MO    5     MO 0.0        OCC NO =    2.0000000  ORB. ENERGY =  -56.023981
 -0.63221416D-09 -0.11769253D-08 -0.19360311D-08 -0.25997649D-08 -0.24477766D-08
 -0.20115010D-09  0.14777368D-08  0.39266233D-08 -0.52933626D-11  0.61830393D-05
  0.57858014D-05  0.44813268D-05 -0.24481909D-06 -0.22909035D-06 -0.17743933D-06
 -0.34763834D-06 -0.32530383D-06 -0.25196039D-06  0.57385335D-08 -0.84017353D-06
  0.36108694D-07  0.55028693D-07 -0.57348765D-07  0.77348544D-05 -0.30571425D-06
 -0.43262464D-06 -0.22259270D-07 -0.16709487D-05  0.67569574D-07  0.10025078D-06
 -0.10138530D-05  0.61109892D-06  0.40275407D-06 -0.15806051D-06 -0.62484834D-05
 -0.36529436D-07  0.91472711D-07  0.16500372D-06  0.24325898D-06  0.11117802D-05
 -0.13670750D-04  0.14170969D-04  0.50970123D-05  0.10744012D-04  0.48199538D-05
  0.31002026D-07  0.55923231D-07  0.82445584D-07  0.41455705D-06 -0.49301738D-05
  0.51280668D-05 -0.37138842D-05 -0.36619768D-05  0.40045909D-05 -0.13402254D-06
 -0.24175754D-06 -0.35641434D-06 -0.14518076D-05  0.18678823D-04 -0.19298250D-04
  0.11658716D-04 -0.76123349D-05 -0.96178223D-05 -0.22581348D-07 -0.42111743D-07
 -0.70867850D-07 -0.11158206D-06 -0.14800831D-06 -0.96419815D-07 -0.97145517D-07
 -0.16371285D-06 -0.34890115D-07  0.11272419D-06  0.33637405D-07  0.10538369D-07
 -0.65205971D-08  0.26316239D-08 -0.52238464D-09  0.98473873D-08 -0.81765718D-05
  0.32545799D-06  0.47527320D-06  0.87497500D+02  0.11702167D+03  0.13516905D+03
 -0.34771801D+01 -0.46504804D+01 -0.53716637D+01 -0.50697398D+01 -0.67804153D+01
 -0.78319028D+01  0.11250646D+03  0.53065511D+02  0.93782082D+01 -0.44710445D+01
 -0.21088413D+01 -0.37269315D+00 -0.65187971D+01 -0.30746973D+01 -0.54338780D+00
  0.99820133D-01  0.20852900D+00  0.13287963D+00 -0.39668914D-02 -0.82870248D-02
 -0.52806888D-02 -0.57837439D-02 -0.12082516D-01 -0.76992658D-02 -0.37133889D-01
  0.14757321D-02  0.21516386D-02  0.10270537D-01 -0.40816756D-03 -0.59512315D-03
 -0.10103069D-02  0.40153572D-04  0.58548276D-04  0.10062099D-03 -0.39993071D-05
 -0.58309509D-05  0.56781776D-04  0.42326824D-04  0.19620434D-04  0.45877320D-05
 -0.11065796D-04 -0.82487732D-05 -0.38236866D-05 -0.89407040D-06 -0.45715980D-04
 -0.34078051D-04 -0.15796747D-04 -0.36936616D-05  0.18671742D-03  0.13918471D-03
  0.64518530D-04  0.15085993D-04  0.78422677D-03  0.58458595D-03  0.27098253D-03
  0.63362270D-04 -0.40496408D-04 -0.30187227D-04 -0.13993171D-04 -0.32719418D-05
 -0.70628367D-06  0.29747155D-06  0.40881212D-06 -0.11082695D-05 -0.68115657D-05
  0.21432270D-06  0.84058611D-07 -0.62280666D-07 -0.21777945D-07 -0.73074592D-07
  0.31245284D-06  0.23607813D-07 -0.22950703D-09 -0.42858284D-09 -0.72956707D-09
 -0.11309512D-08 -0.15229426D-08 -0.11542953D-08  0.25586115D-08  0.59600667D-08
  0.14538006D-08 -0.13906176D-07  0.14546148D-07 -0.12825755D-07  0.14864161D-07
 -0.12300273D-07 -0.95268943D-06  0.38182941D-07  0.56221682D-07 -0.38326556D-04
 -0.49079618D-04 -0.52514665D-04 -0.41786602D-04 -0.96174102D-05  0.14960645D-05
  0.19158068D-05  0.20498927D-05  0.16311263D-05  0.37541245D-06  0.21052336D-05
  0.26958870D-05  0.28845701D-05  0.22952900D-05  0.52827328D-06  0.30852532D-04
 -0.64111636D-05 -0.12043371D-05  0.25026154D-06 -0.16947737D-05  0.35217438D-06
  0.96387932D-05 -0.37619822D-06 -0.52916174D-06 -0.49900360D-05  0.19463898D-06
  0.27331829D-06  0.17145989D-05 -0.67347357D-07 -0.96528695D-07 -0.31357698D-06
  0.29814115D-06  0.15435828D-07  0.79532214D-06  0.12222363D-06 -0.21514814D-06
MO    6     MO 0.0        OCC NO =    2.0000000  ORB. ENERGY =  -56.023981
  0.75366947D-09  0.14030257D-08  0.23079640D-08  0.30992084D-08  0.29180215D-08
  0.23979325D-09 -0.19811782D-08 -0.52643613D-08  0.70967269D-11  0.14824240D-06
  0.13871836D-06  0.10744273D-06  0.59885321D-05  0.56037906D-05  0.43403524D-05
 -0.15189384D-05 -0.14213521D-05 -0.11008921D-05 -0.12360511D-08 -0.19626850D-07
 -0.80778137D-06  0.19651193D-06  0.40754511D-07  0.18542484D-06  0.74911622D-05
 -0.18999203D-05  0.28975727D-07 -0.40306700D-07 -0.16206699D-05  0.41095599D-06
  0.66561900D-06 -0.21120464D-05  0.14464274D-05  0.71688765D-06 -0.42266117D-06
 -0.51982890D-05  0.95794728D-07  0.17280002D-06  0.25475278D-06  0.10824739D-05
 -0.13633762D-04  0.14086468D-04  0.99603927D-05  0.56611841D-05  0.57482414D-05
 -0.12409311D-06 -0.22384627D-06 -0.33000841D-06 -0.15257919D-05  0.18644426D-04
 -0.19307529D-04 -0.49985993D-05  0.97461051D-05 -0.12829384D-04  0.37863139D-07
  0.68299701D-07  0.10069176D-06  0.38527318D-06 -0.50623838D-05  0.52189861D-05
 -0.46445739D-05 -0.27488242D-05  0.39160830D-05  0.26965851D-08  0.50288362D-08
  0.84627892D-08  0.13324737D-07  0.17674632D-07  0.11514115D-07  0.13756446D-07
  0.23182821D-07  0.49406706D-08 -0.21017361D-07  0.60320719D-08 -0.14115023D-07
  0.10215433D-07 -0.50786551D-08  0.23679096D-08 -0.40655898D-08 -0.19947565D-06
 -0.79442482D-05  0.20037127D-05  0.21358691D+01  0.28565726D+01  0.32995618D+01
  0.85022680D+02  0.11371177D+03  0.13134587D+03 -0.21451982D+02 -0.28690496D+02
 -0.33139736D+02  0.27463536D+01  0.12953626D+01  0.22892798D+00  0.10932427D+03
  0.51564582D+02  0.91129506D+01 -0.27583491D+02 -0.13010205D+02 -0.22992789D+01
  0.24366706D-02  0.50903206D-02  0.32436731D-02  0.96996767D-01  0.20263086D+00
  0.12912119D+00 -0.24473134D-01 -0.51125540D-01 -0.32578407D-01 -0.90645699D-03
 -0.36083553D-01  0.91041421D-02  0.25070773D-03  0.99800213D-02 -0.25180045D-02
 -0.24661627D-04 -0.98172305D-03  0.24768383D-03  0.24559461D-05  0.97771871D-04
 -0.24665592D-04 -0.28545362D-05 -0.21278562D-05 -0.98635941D-06 -0.23063469D-06
  0.19529635D-03  0.14557970D-03  0.67482903D-04  0.15779135D-04 -0.19244181D-03
 -0.14345185D-03 -0.66496543D-04 -0.15548500D-04  0.49284096D-04  0.36737831D-04
  0.17029678D-04  0.39819505D-05  0.84227295D-05  0.62785530D-05  0.29103987D-05
  0.68052160D-06  0.71373794D-03  0.53204148D-03  0.24662575D-03  0.57667065D-04
  0.27484066D-06 -0.19103363D-05  0.16354956D-05  0.49346936D-08 -0.20991692D-06
 -0.60155144D-05 -0.73067983D-07  0.13956411D-06 -0.66496128D-07 -0.10470836D-06
  0.42933073D-07  0.23106879D-06  0.14135703D-09  0.26397100D-09  0.44935197D-09
  0.69657086D-09  0.93800459D-09  0.71094887D-09 -0.15770927D-08 -0.36737026D-08
 -0.89610252D-09  0.85523527D-08 -0.89008793D-08  0.78154027D-08 -0.91741629D-08
 -0.94282028D-08 -0.23098320D-07 -0.92501210D-06  0.23474674D-06 -0.92791506D-06
 -0.11882549D-05 -0.12714200D-05 -0.10116854D-05 -0.23284482D-06 -0.37199178D-04
 -0.47635938D-04 -0.50969943D-04 -0.40557447D-04 -0.93345136D-05  0.94636887D-05
  0.12118862D-04  0.12967052D-04  0.10318052D-04  0.23747549D-05  0.74694623D-06
 -0.15521561D-06  0.29944968D-04 -0.62225717D-05 -0.76184841D-05  0.15831229D-05
  0.23334216D-06  0.93550384D-05 -0.23798331D-05 -0.12072182D-06 -0.48426019D-05
  0.12324137D-05  0.41921853D-07  0.16668743D-05 -0.42106137D-06  0.37000722D-06
 -0.29729453D-06 -0.72712698D-07  0.64697525D-06 -0.20686119D-06  0.36663628D-06
MO    7     MO 0.0        OCC NO =    2.0000000  ORB. ENERGY =  -10.091728
  0.43814638D+00  0.81565016D+00  0.13417368D+01  0.18017274D+01  0.16963943D+01
  0.13940401D+00  0.37087659D+00  0.98548854D+00 -0.13285074D-02  0.21548514D-03
  0.20164100D-03  0.15617874D-03  0.80579635D-03  0.75402685D-03  0.58402294D-03
  0.32070722D-02  0.30010294D-02  0.23244132D-02  0.79181201D-02 -0.10993756D-03
 -0.41202304D-03 -0.16392083D-02 -0.15039222D-02 -0.38752750D-05 -0.14496925D-04
 -0.57707187D-04 -0.71803561D-03  0.39757026D-05  0.14857416D-04  0.59140394D-04
  0.60330678D-03  0.50233478D-03 -0.11056416D-02 -0.57805070D-04 -0.22968370D-03
 -0.86331961D-03  0.56077675D-04  0.10115612D-03  0.14913079D-03 -0.12776363D-02
  0.72380145D-03  0.35986381D-04  0.16089380D-02  0.13522455D-02 -0.10298622D-02
  0.56076613D-04  0.10115421D-03  0.14912797D-03 -0.12775551D-02  0.72376524D-03
  0.36024857D-04  0.49122591D-03 -0.22879346D-02 -0.39711830D-04  0.56074312D-04
  0.10115006D-03  0.14912185D-03 -0.12778049D-02  0.72388041D-03  0.35902569D-04
 -0.22097773D-02  0.52446540D-03 -0.56615017D-03 -0.11350718D-07 -0.21167847D-07
 -0.35622363D-07 -0.56087726D-07 -0.74397710D-07 -0.48466288D-07  0.15642483D-06
  0.26361233D-06  0.56180466D-07 -0.13978739D-05  0.20024143D-05 -0.26753883D-06
 -0.39435903D-05  0.16986305D-04  0.80800594D-05  0.88557593D-04  0.10350982D-05
  0.38415830D-05  0.15309190D-04 -0.10653401D-04 -0.14248165D-04 -0.16457729D-04
 -0.39313907D-04 -0.52579546D-04 -0.60733432D-04 -0.15682053D-03 -0.20973628D-03
 -0.24226158D-03 -0.38154292D-04 -0.17996096D-04 -0.31804298D-05 -0.14075615D-03
 -0.66389941D-04 -0.11733020D-04 -0.56149526D-03 -0.26483843D-03 -0.46804598D-04
  0.53253760D-05  0.11124964D-04  0.70890907D-05  0.19644895D-04  0.41039118D-04
  0.26151100D-04  0.78366838D-04  0.16371205D-03  0.10432120D-03 -0.22536314D-04
 -0.83147655D-04 -0.33168117D-03  0.18124035D-04  0.66878901D-04  0.26677712D-03
 -0.54400442D-05 -0.20019953D-04 -0.79895624D-04  0.13956566D-05  0.50616837D-05
  0.20250548D-04  0.59878450D-03  0.44635177D-03  0.20690462D-03  0.48379304D-04
  0.49946161D-03  0.37231353D-03  0.17258448D-03  0.40354426D-04 -0.10982461D-02
 -0.81866530D-03 -0.37948910D-03 -0.88733730D-04 -0.57022000D-04 -0.42505894D-04
 -0.19703441D-04 -0.46071411D-05 -0.22769530D-03 -0.16973084D-03 -0.78678069D-04
 -0.18396835D-04 -0.85824830D-03 -0.63976380D-03 -0.29656001D-03 -0.69342902D-04
 -0.57541082D-04 -0.47995437D-04  0.10553652D-03  0.54794485D-05  0.21878954D-04
  0.82474770D-04  0.17666788D-04  0.14734615D-04 -0.32401403D-04 -0.16821154D-05
 -0.67150267D-05 -0.25322412D-04 -0.11627842D-04 -0.21713905D-04 -0.36963099D-04
 -0.57298997D-04 -0.77159016D-04 -0.58481714D-04 -0.51215186D-04 -0.11930140D-03
 -0.29100419D-04  0.15062634D-03 -0.10663873D-03 -0.82365935D-05  0.22189195D-03
  0.11997395D-03 -0.73894124D-06 -0.26939626D-05 -0.10768691D-04  0.10057001D-03
  0.12878637D-03  0.13780003D-03  0.10964928D-03  0.25236369D-04  0.37773883D-03
  0.48371885D-03  0.51757398D-03  0.41184035D-03  0.94787261D-04  0.15023547D-02
  0.19238618D-02  0.20585115D-02  0.16379844D-02  0.37699088D-03 -0.55512695D-04
  0.11535552D-04 -0.20850753D-03  0.43327916D-04 -0.82928187D-03  0.17232498D-03
 -0.16273749D-04 -0.61166888D-04 -0.24324183D-03 -0.83086473D-05 -0.31134412D-04
 -0.12388183D-03 -0.51184886D-05 -0.19274151D-04 -0.76627323D-04 -0.10960340D-03