 Single Point Energy
GAUSSIAN             31 MOL ORBITALS    210 PRIMITIVES        6 NUCLEI   B3LYP
  C    1    (CENTRE  1)   0.00015478  0.01748245  1.40120649  CHARGE =  6.0
  H    2    (CENTRE  2)  -1.04931114 -1.71350365  1.47462783  CHARGE =  1.0
  H    3    (CENTRE  3)  -0.97481693  1.79276492  1.43066122  CHARGE =  1.0
  H    4    (CENTRE  4)   2.02464929 -0.02487328  1.45390137  CHARGE =  1.0
  Br   5    (CENTRE  5)   0.00046546 -0.04097677 -3.26839817  CHARGE = 35.0
  Cl   6    (CENTRE  6)  -0.00104360  0.07499436  5.97808863  CHARGE = 17.0
CENTRE ASSIGNMENTS    1  1  1  1  1  1  1  1  1  1  1  1  1  1  1  1  1  1  1  1
CENTRE ASSIGNMENTS    1  1  1  1  1  1  1  1  1  1  1  1  1  1  1  1  2  2  2  2
CENTRE ASSIGNMENTS    2  2  2  2  2  3  3  3  3  3  3  3  3  3  4  4  4  4  4  4
CENTRE ASSIGNMENTS    4  4  4  5  5  5  5  5  5  5  5  5  5  5  5  5  5  5  5  5
CENTRE ASSIGNMENTS    5  5  5  5  5  5  5  5  5  5  5  5  5  5  5  5  5  5  5  5
CENTRE ASSIGNMENTS    5  5  5  5  5  5  5  5  5  5  5  5  5  5  5  5  5  5  5  5
CENTRE ASSIGNMENTS    5  5  5  5  5  5  5  5  5  5  5  5  5  5  5  5  5  5  5  5
CENTRE ASSIGNMENTS    5  5  5  5  5  5  5  5  5  5  5  5  5  5  5  5  5  6  6  6
CENTRE ASSIGNMENTS    6  6  6  6  6  6  6  6  6  6  6  6  6  6  6  6  6  6  6  6
CENTRE ASSIGNMENTS    6  6  6  6  6  6  6  6  6  6  6  6  6  6  6  6  6  6  6  6
CENTRE ASSIGNMENTS    6  6  6  6  6  6  6  6  6  6
TYPE ASSIGNMENTS      1  1  1  1  1  1  1  1  1  2  2  2  3  3  3  4  4  4  1  2
TYPE ASSIGNMENTS      3  4  1  2  3  4  1  2  3  4  5  6  7  8  9 10  1  1  1  1
TYPE ASSIGNMENTS      1  1  2  3  4  1  1  1  1  1  1  2  3  4  1  1  1  1  1  1
TYPE ASSIGNMENTS      2  3  4  1  1  1  1  1  1  1  1  1  1  1  1  1  1  1  1  2
TYPE ASSIGNMENTS      3  4  2  2  2  3  3  3  4  4  4  2  2  2  3  3  3  4  4  4
TYPE ASSIGNMENTS      2  2  2  3  3  3  4  4  4  2  3  4  2  3  4  2  3  4  2  3
TYPE ASSIGNMENTS      4  5  5  5  5  6  6  6  6  7  7  7  7  8  8  8  8  9  9  9
TYPE ASSIGNMENTS      9 10 10 10 10  5  6  7  8  9 10  5  6  7  8  9 10  1  1  1
TYPE ASSIGNMENTS      1  1  1  1  1  1  1  1  1  1  1  2  3  4  2  2  2  2  2  3
TYPE ASSIGNMENTS      3  3  3  3  4  4  4  4  4  2  2  3  3  4  4  2  3  4  2  3
TYPE ASSIGNMENTS      4  2  3  4  5  6  7  8  9 10
EXPONENTS  0.4563240D+04 0.6820240D+03 0.1549730D+03 0.4445530D+02 0.1302900D+02
EXPONENTS  0.1827730D+01 0.2096420D+02 0.4803310D+01 0.1459330D+01 0.2096420D+02
EXPONENTS  0.4803310D+01 0.1459330D+01 0.2096420D+02 0.4803310D+01 0.1459330D+01
EXPONENTS  0.2096420D+02 0.4803310D+01 0.1459330D+01 0.4834560D+00 0.4834560D+00
EXPONENTS  0.4834560D+00 0.4834560D+00 0.1455850D+00 0.1455850D+00 0.1455850D+00
EXPONENTS  0.1455850D+00 0.4380000D-01 0.4380000D-01 0.4380000D-01 0.4380000D-01
EXPONENTS  0.6260000D+00 0.6260000D+00 0.6260000D+00 0.6260000D+00 0.6260000D+00
EXPONENTS  0.6260000D+00 0.3386500D+02 0.5094790D+01 0.1158790D+01 0.3258400D+00
EXPONENTS  0.1027410D+00 0.3600000D-01 0.7500000D+00 0.7500000D+00 0.7500000D+00
EXPONENTS  0.3386500D+02 0.5094790D+01 0.1158790D+01 0.3258400D+00 0.1027410D+00
EXPONENTS  0.3600000D-01 0.7500000D+00 0.7500000D+00 0.7500000D+00 0.3386500D+02
EXPONENTS  0.5094790D+01 0.1158790D+01 0.3258400D+00 0.1027410D+00 0.3600000D-01
EXPONENTS  0.7500000D+00 0.7500000D+00 0.7500000D+00 0.4397000D+06 0.6603000D+05
EXPONENTS  0.1514000D+05 0.4317000D+04 0.1414000D+04 0.5239000D+03 0.5239000D+03
EXPONENTS  0.2077000D+03 0.8654000D+02 0.3052000D+02 0.1298000D+02 0.4412000D+01
EXPONENTS  0.1862000D+01 0.3932000D+00 0.1400000D+00 0.3500000D-01 0.3500000D-01
EXPONENTS  0.3500000D-01 0.3500000D-01 0.2957000D+04 0.7003000D+03 0.2246000D+03
EXPONENTS  0.2957000D+04 0.7003000D+03 0.2246000D+03 0.2957000D+04 0.7003000D+03
EXPONENTS  0.2246000D+03 0.8259000D+02 0.3319000D+02 0.1420000D+02 0.8259000D+02
EXPONENTS  0.3319000D+02 0.1420000D+02 0.8259000D+02 0.3319000D+02 0.1420000D+02
EXPONENTS  0.1420000D+02 0.7438000D+01 0.3526000D+01 0.1420000D+02 0.7438000D+01
EXPONENTS  0.3526000D+01 0.1420000D+02 0.7438000D+01 0.3526000D+01 0.1595000D+01
EXPONENTS  0.1595000D+01 0.1595000D+01 0.8462000D+00 0.8462000D+00 0.8462000D+00
EXPONENTS  0.3186000D+00 0.3186000D+00 0.3186000D+00 0.1096000D+00 0.1096000D+00
EXPONENTS  0.1096000D+00 0.1348000D+03 0.3639000D+02 0.1216000D+02 0.4341000D+01
EXPONENTS  0.1348000D+03 0.3639000D+02 0.1216000D+02 0.4341000D+01 0.1348000D+03
EXPONENTS  0.3639000D+02 0.1216000D+02 0.4341000D+01 0.1348000D+03 0.3639000D+02
EXPONENTS  0.1216000D+02 0.4341000D+01 0.1348000D+03 0.3639000D+02 0.1216000D+02
EXPONENTS  0.4341000D+01 0.1348000D+03 0.3639000D+02 0.1216000D+02 0.4341000D+01
EXPONENTS  0.1535000D+01 0.1535000D+01 0.1535000D+01 0.1535000D+01 0.1535000D+01
EXPONENTS  0.1535000D+01 0.4510000D+00 0.4510000D+00 0.4510000D+00 0.4510000D+00
EXPONENTS  0.4510000D+00 0.4510000D+00 0.1058190D+06 0.1587200D+05 0.3619650D+04
EXPONENTS  0.1030800D+04 0.3399080D+03 0.1245380D+03 0.1245380D+03 0.4951350D+02
EXPONENTS  0.2080560D+02 0.6583460D+01 0.2564680D+01 0.5597630D+00 0.1832730D+00
EXPONENTS  0.4830000D-01 0.4830000D-01 0.4830000D-01 0.4830000D-01 0.5897760D+03
EXPONENTS  0.1398490D+03 0.4514130D+02 0.1687330D+02 0.2771520D+01 0.5897760D+03
EXPONENTS  0.1398490D+03 0.4514130D+02 0.1687330D+02 0.2771520D+01 0.5897760D+03
EXPONENTS  0.1398490D+03 0.4514130D+02 0.1687330D+02 0.2771520D+01 0.6741100D+01
EXPONENTS  0.2771520D+01 0.6741100D+01 0.2771520D+01 0.6741100D+01 0.2771520D+01
EXPONENTS  0.1023870D+01 0.1023870D+01 0.1023870D+01 0.3813680D+00 0.3813680D+00
EXPONENTS  0.3813680D+00 0.1094370D+00 0.1094370D+00 0.1094370D+00 0.7500000D+00
EXPONENTS  0.7500000D+00 0.7500000D+00 0.7500000D+00 0.7500000D+00 0.7500000D+00
MO    1     MO 0.0        OCC NO =    2.0000000  ORB. ENERGY = -482.620309
 -0.23420359D-06 -0.43599172D-06 -0.71720228D-06 -0.96308229D-06 -0.90677828D-06
 -0.74516008D-07  0.58476966D-06  0.15538425D-05 -0.20946882D-08 -0.26551945D-09
 -0.24846079D-09 -0.19244248D-09  0.17104811D-07  0.16005889D-07  0.12397179D-07
  0.13614703D-05  0.12740007D-05  0.98676281D-06 -0.24652487D-05  0.54912139D-09
 -0.56805282D-08 -0.44104712D-06  0.32717409D-05  0.36222639D-09 -0.24114053D-07
 -0.19219676D-05  0.37814944D-05  0.45783078D-09 -0.35587966D-07 -0.28380233D-05
 -0.11101009D-05 -0.11103362D-05  0.22204371D-05  0.15782170D-09 -0.59175542D-09
  0.83458865D-07 -0.10666849D-06 -0.19241473D-06 -0.28367003D-06  0.21291129D-06
 -0.19896124D-05 -0.94079218D-06  0.46176251D-06  0.76794614D-06  0.45043976D-06
 -0.10668779D-06 -0.19244954D-06 -0.28372136D-06  0.21313714D-06 -0.19896213D-05
 -0.94088584D-06  0.42913756D-06 -0.77560783D-06  0.46934462D-06 -0.10661250D-06
 -0.19231374D-06 -0.28352115D-06  0.21224835D-06 -0.19896552D-05 -0.94055300D-06
 -0.89022392D-06  0.24707442D-07  0.46094926D-06  0.38584359D+01  0.71955609D+01
  0.12109067D+02  0.19065834D+02  0.25289925D+02  0.16475087D+02  0.96359557D+01
  0.16238833D+02  0.34607836D+01  0.81725562D-01 -0.11312513D-01  0.24876812D-02
 -0.64423024D-03  0.72288034D-04 -0.23145991D-04 -0.17770292D-05 -0.56751917D-10
 -0.22877184D-08 -0.18408255D-06 -0.59824319D-08 -0.80010760D-08 -0.92418600D-08
  0.10635839D-04  0.14224676D-04  0.16430598D-04  0.85031361D-03  0.11372338D-02
  0.13135928D-02 -0.50501767D-10 -0.23819985D-10 -0.42096792D-11  0.13602848D-05
  0.64160057D-06  0.11338935D-06  0.10881048D-03  0.51322243D-04  0.90701223D-05
 -0.20609227D-09 -0.43053654D-09 -0.27434810D-09 -0.47378741D-07 -0.98976441D-07
 -0.63070137D-07 -0.37934932D-05 -0.79247877D-05 -0.50498627D-05  0.73644549D-09
  0.13668808D-06  0.10946733D-04 -0.51544519D-09 -0.10636941D-06 -0.85173962D-05
  0.13044202D-09  0.52152018D-07  0.41736139D-05  0.26513290D-10 -0.39377512D-07
 -0.31489196D-05  0.35465493D-04  0.26437033D-04  0.12254783D-04  0.28654647D-05
  0.35450252D-04  0.26425672D-04  0.12249517D-04  0.28642333D-05 -0.70915745D-04
 -0.52862705D-04 -0.24504300D-04 -0.57296980D-05 -0.68404603D-09 -0.50990825D-09
 -0.23636598D-09 -0.55268082D-10 -0.10641001D-07 -0.79321186D-08 -0.36769026D-08
 -0.85974875D-09 -0.26574306D-05 -0.19809278D-05 -0.91825133D-06 -0.21470937D-06
 -0.35877137D-05 -0.35861723D-05  0.71738860D-05  0.43835475D-10  0.72132040D-09
  0.26892027D-06  0.93705677D-06  0.93665540D-06 -0.18737122D-05 -0.10454439D-10
 -0.16014865D-09 -0.70245153D-07  0.17288752D-06  0.32285123D-06  0.54958248D-06
  0.85194495D-06  0.11472318D-05  0.86953006D-06 -0.62874510D-06 -0.14646080D-05
 -0.35725235D-06  0.23227959D-05 -0.21818659D-05  0.15116233D-05 -0.18508992D-05
  0.68347799D-05  0.35735891D-09 -0.11571425D-07 -0.91862592D-06 -0.27429473D-08
 -0.35125203D-08 -0.37583591D-08 -0.29905752D-08 -0.68829690D-09  0.88850193D-07
  0.11377838D-06  0.12174165D-06  0.96871414D-07  0.22295475D-07  0.70514641D-05
  0.90298530D-05  0.96618459D-05  0.76880565D-05  0.17694474D-05  0.24379537D-08
 -0.50660738D-09 -0.78762185D-07  0.16366801D-07 -0.62507283D-05  0.12989029D-05
  0.61040826D-09 -0.20017573D-07 -0.15888000D-05 -0.31558069D-09  0.11183799D-07
  0.88816738D-06  0.22420741D-09 -0.11843163D-07 -0.94276344D-06 -0.48960155D-06
 -0.48931475D-06  0.97891630D-06 -0.22317879D-10 -0.11203264D-08  0.36992946D-07
MO    2     MO 0.0        OCC NO =    2.0000000  ORB. ENERGY = -101.316457
 -0.74948714D-06 -0.13952399D-05 -0.22951565D-05 -0.30820100D-05 -0.29018286D-05
 -0.23846257D-06  0.20599192D-05  0.54735911D-05 -0.73787832D-08  0.43708119D-10
  0.40900030D-10  0.31678654D-10  0.54397751D-07  0.50902892D-07  0.39426258D-07
  0.43506458D-05  0.40711325D-05  0.31532495D-05 -0.14586069D-04  0.50024479D-08
 -0.17702568D-06 -0.14070432D-04  0.27269781D-04 -0.41363645D-08  0.27884738D-06
  0.22217764D-04 -0.26872961D-04  0.32079386D-08 -0.17930599D-06 -0.14279077D-04
 -0.51270750D-05 -0.51267055D-05  0.10253780D-04  0.24429696D-09 -0.93449514D-08
  0.38692139D-06  0.19978721D-05  0.36038763D-05  0.53130636D-05 -0.17131578D-04
  0.21017416D-05 -0.29356204D-05 -0.18282979D-05 -0.31784447D-05 -0.12534872D-04
  0.19977346D-05  0.36036283D-05  0.53126979D-05 -0.17131276D-04  0.21022037D-05
 -0.29363243D-05 -0.16977651D-05  0.29367347D-05 -0.12610319D-04  0.19985233D-05
  0.36050508D-05  0.53147952D-05 -0.17133056D-04  0.20996589D-05 -0.29327972D-05
  0.35394427D-05 -0.23303380D-06 -0.12576425D-04  0.87551707D-07  0.16327435D-06
  0.27476664D-06  0.43262252D-06  0.57385327D-06  0.37383594D-06 -0.30259044D-05
 -0.50993547D-05 -0.10867630D-05  0.18398666D-04 -0.25919555D-04  0.24453947D-04
 -0.16622482D-04  0.82414935D-05 -0.80025713D-05 -0.79209799D-05 -0.39844085D-09
 -0.10589010D-07 -0.85440456D-06 -0.17020910D-08 -0.22764252D-08 -0.26294468D-08
 -0.17101839D-06 -0.22872490D-06 -0.26419491D-06 -0.13714374D-04 -0.18341997D-04
 -0.21186422D-04  0.55725270D-08  0.26283735D-08  0.46450950D-09  0.52857356D-06
  0.24931036D-06  0.44060341D-07  0.42393961D-04  0.19995805D-04  0.35338362D-05
 -0.68144180D-09 -0.14235643D-08 -0.90712895D-09 -0.65699451D-07 -0.13724928D-06
 -0.87458495D-07 -0.52691425D-05 -0.11007489D-04 -0.70142333D-05  0.24778469D-08
  0.25136391D-06  0.20156749D-04 -0.18750158D-08 -0.20128890D-06 -0.16138963D-04
  0.69564329D-09  0.72589919D-07  0.58205416D-05 -0.52494252D-09  0.66175117D-08
  0.51881197D-06 -0.12374836D-03 -0.92245704D-04 -0.42760136D-04 -0.99983539D-05
 -0.12368542D-03 -0.92198792D-04 -0.42738390D-04 -0.99932691D-05  0.24743378D-03
  0.18444450D-03  0.85498525D-04  0.19991623D-04 -0.20018894D-08 -0.14922678D-08
 -0.69173493D-09 -0.16174436D-09 -0.72609811D-07 -0.54125512D-07 -0.25089670D-07
 -0.58665715D-08  0.92992318D-05  0.69319239D-05  0.32132662D-05  0.75133935D-06
  0.10066751D-04  0.10061661D-04 -0.20128412D-04  0.15510161D-09  0.57681553D-08
 -0.75644522D-06 -0.29894605D-05 -0.29879825D-05  0.59774430D-05 -0.37239520D-10
 -0.15798870D-08  0.22460397D-06  0.12702096D+01  0.23719972D+01  0.40377982D+01
  0.62592639D+01  0.84287451D+01  0.63884622D+01  0.23318202D+01  0.54317759D+01
  0.13249380D+01  0.43884215D-01 -0.56782529D-02  0.66109714D-03 -0.18963658D-03
  0.67628206D-04  0.33630533D-08 -0.16499873D-06 -0.13132032D-04  0.92801435D-07
  0.11883820D-06  0.12715560D-06  0.10117937D-06  0.23286973D-07 -0.33106192D-05
 -0.42394607D-05 -0.45361775D-05 -0.36094955D-05 -0.83074471D-06 -0.26304241D-03
 -0.33684271D-03 -0.36041809D-03 -0.28678936D-03 -0.66006107D-04 -0.15517489D-07
  0.32245380D-08  0.62831603D-06 -0.13056422D-06  0.49942655D-04 -0.10378096D-04
 -0.71922476D-08  0.27056776D-06  0.21503038D-04  0.25703119D-08 -0.11335338D-06
 -0.90166936D-05 -0.39031069D-08  0.18832036D-06  0.14987241D-04  0.72244755D-05
  0.72211458D-05 -0.14445621D-04  0.12658621D-09  0.11797371D-07 -0.54468636D-06
MO    3     MO 0.0        OCC NO =    2.0000000  ORB. ENERGY =  -62.273342
 -0.23605122D-05 -0.43943127D-05 -0.72286030D-05 -0.97068006D-05 -0.91393187D-05
 -0.75103866D-06  0.70260812D-05  0.18669613D-04 -0.25167943D-07 -0.37486292D-08
 -0.35077933D-08 -0.27169215D-08  0.24038442D-06  0.22494059D-06  0.17422518D-06
  0.19133355D-04  0.17904106D-04  0.13867422D-04 -0.34060074D-04  0.76071923D-08
 -0.80633692D-07 -0.62647801D-05  0.45797667D-04  0.50844116D-08 -0.33733522D-06
 -0.26886333D-04  0.54196029D-04  0.64974776D-08 -0.50497748D-06 -0.40270318D-04
 -0.15390023D-04 -0.15393324D-04  0.30783347D-04  0.21993818D-08 -0.81266764D-08
  0.11570270D-05 -0.15318151D-05 -0.27631759D-05 -0.40736496D-05  0.31586451D-05
 -0.28341846D-04 -0.13477301D-04  0.64084340D-05  0.10655792D-04  0.61010737D-05
 -0.15320823D-05 -0.27636579D-05 -0.40743602D-05  0.31617989D-05 -0.28341960D-04
 -0.13478639D-04  0.59556649D-05 -0.10765896D-04  0.63633920D-05 -0.15310446D-05
 -0.27617860D-05 -0.40716005D-05  0.31494187D-05 -0.28342508D-04 -0.13473876D-04
 -0.12354634D-04  0.34101314D-06  0.62470730D-05 -0.12742141D+01 -0.23762699D+01
 -0.39989117D+01 -0.62963218D+01 -0.83517725D+01 -0.54407509D+01 -0.53840027D+01
 -0.90733004D+01 -0.19336814D+01  0.58199569D+01  0.24291199D+01  0.10317447D+00
 -0.10984661D-01  0.10463099D-02 -0.33118218D-03 -0.25034074D-04 -0.80917331D-09
 -0.32653782D-07 -0.26274462D-05 -0.63907183D-06 -0.85471299D-06 -0.98725944D-06
  0.26199113D-03  0.35039445D-03  0.40473263D-03  0.20950017D-01  0.28019154D-01
  0.32364284D-01 -0.86413152D-06 -0.40758177D-06 -0.72031468D-07  0.36550770D-03
  0.17239769D-03  0.30467650D-04  0.29228006D-01  0.13785867D-01  0.24363608D-02
 -0.51480153D-08 -0.10754449D-07 -0.68529898D-08  0.51328006D-06  0.10722664D-05
  0.68327361D-06  0.40985891D-04  0.85621474D-04  0.54560035D-04  0.12196482D-07
  0.10829382D-05  0.86873152D-04 -0.76331334D-08 -0.12173463D-05 -0.97532758D-04
  0.18160222D-08  0.70560609D-06  0.56473170D-04  0.37857711D-09 -0.55295103D-06
 -0.44218481D-04 -0.13682343D-02 -0.10199226D-02 -0.47278111D-03 -0.11054766D-03
 -0.13676478D-02 -0.10194853D-02 -0.47257845D-03 -0.11050027D-03  0.27358821D-02
  0.20394079D-02  0.94535956D-03  0.22104793D-03 -0.34758149D-07 -0.25909758D-07
 -0.12010367D-07 -0.28083143D-08 -0.38284218D-06 -0.28538194D-06 -0.13228768D-06
 -0.30932060D-07  0.10273127D-03  0.76578941D-04  0.35497869D-04  0.83002602D-05
 -0.34172285D-04 -0.34156996D-04  0.68329281D-04  0.88844054D-09  0.12157311D-07
  0.25598038D-05  0.12176553D-04  0.12171293D-04 -0.24347846D-04 -0.16039647D-09
 -0.23814962D-08 -0.91270116D-06  0.51665456D-06  0.96480392D-06  0.16423643D-05
  0.25459399D-05  0.34283710D-05  0.25984910D-05 -0.53036995D-05 -0.12354515D-04
 -0.30135569D-05  0.27919887D-04 -0.28393868D-04  0.21052582D-04 -0.26299658D-04
  0.96964250D-04  0.50743144D-08 -0.16433351D-06 -0.13046023D-04 -0.31284575D-07
 -0.40061909D-07 -0.42865813D-07 -0.34108885D-07 -0.78503425D-08  0.10178836D-05
  0.13034654D-05  0.13946940D-05  0.11097762D-05  0.25542092D-06  0.80786356D-04
  0.10345212D-03  0.11069266D-03  0.88079590D-04  0.20271989D-04  0.25591637D-07
 -0.53179485D-08 -0.83146320D-06  0.17277826D-06 -0.65990358D-04  0.13712813D-04
  0.77550292D-08 -0.25590662D-06 -0.20312477D-04 -0.43205414D-08  0.15441684D-06
  0.12263893D-04  0.31399035D-08 -0.16674938D-06 -0.13274261D-04 -0.68136522D-05
 -0.68096579D-05  0.13623310D-04 -0.31101190D-09 -0.15567636D-07  0.51481425D-06
MO    4     MO 0.0        OCC NO =    2.0000000  ORB. ENERGY =  -56.092212
 -0.11708934D-05 -0.21797267D-05 -0.35856299D-05 -0.48148992D-05 -0.45334091D-05
 -0.37254041D-06  0.29310377D-05  0.77883161D-05 -0.10499194D-07  0.39613370D-08
  0.37068354D-08  0.28710873D-08  0.98604186D-06  0.92269224D-06  0.71466080D-06
  0.78989965D-04  0.73915145D-04  0.57250137D-04 -0.35086491D-04 -0.89981294D-08
  0.91150322D-07  0.70621287D-05  0.68847474D-04  0.11218210D-08 -0.37690143D-06
 -0.30147712D-04  0.33174262D-05 -0.55455892D-08  0.54990708D-06  0.43876666D-04
 -0.16318123D-04 -0.16297491D-04  0.32615614D-04 -0.25493452D-08  0.47458898D-08
  0.12214167D-05  0.99903174D-05  0.18021107D-04  0.26567862D-04 -0.59744837D-04
 -0.51442383D-06 -0.93349392D-05 -0.17127979D-04 -0.27386033D-04  0.69803697D-04
  0.99895942D-05  0.18019803D-04  0.26565939D-04 -0.59749253D-04 -0.51330738D-06
 -0.93351715D-05 -0.15914983D-04  0.29830109D-04  0.69088591D-04  0.99924468D-05
  0.18024948D-04  0.26573525D-04 -0.59734261D-04 -0.51846731D-06 -0.93337447D-05
  0.33018374D-04  0.16737958D-06  0.69458878D-04  0.33128267D-03  0.61780593D-03
  0.10396762D-02  0.16369794D-02  0.21713756D-02  0.14145397D-02  0.14213783D-02
  0.23953540D-02  0.51049245D-03 -0.16209080D-02 -0.54771475D-03 -0.98180207D-04
  0.56054059D-04 -0.17485282D-04  0.11719649D-04  0.74973027D-04 -0.10522332D-09
  0.40941312D-07  0.32728335D-05 -0.16956716D-02 -0.22678398D-02 -0.26195300D-02
  0.10970648D+01  0.14672459D+01  0.16947823D+01  0.87704516D+02  0.11729853D+03
  0.13548886D+03 -0.21803212D-02 -0.10283842D-02 -0.18174518D-03  0.14106417D+01
  0.66535226D+00  0.11758696D+00  0.11277333D+03  0.53191385D+02  0.94004538D+01
 -0.19408968D-05 -0.40546256D-05 -0.25837036D-05  0.12537857D-02  0.26192179D-02
  0.16690278D-02  0.10023344D+00  0.20939242D+00  0.13342982D+00  0.73927471D-06
 -0.47129250D-03 -0.37677037D-01 -0.21367931D-06  0.13281706D-03  0.10617808D-01
  0.24210395D-07 -0.13900392D-04 -0.11112010D-02 -0.23342236D-08  0.14956386D-05
  0.11956661D-03 -0.10230327D-02 -0.76259898D-03 -0.35349978D-03 -0.82656798D-04
 -0.10225300D-02 -0.76222429D-03 -0.35332609D-03 -0.82616185D-04  0.20455627D-02
  0.15248233D-02  0.70682587D-03  0.16527298D-03 -0.86016968D-08 -0.64119606D-08
 -0.29722393D-08 -0.69498142D-09  0.71468153D-07  0.53274486D-07  0.24695180D-07
  0.57743303D-08  0.76695504D-04  0.57171109D-04  0.26501444D-04  0.61966786D-05
 -0.28843360D-04 -0.28831619D-04  0.57674979D-04  0.24751164D-09 -0.22718783D-07
  0.21689361D-05  0.11238796D-04  0.11233969D-04 -0.22472765D-04 -0.12601460D-10
  0.69523423D-08 -0.84469161D-06 -0.27341861D-06 -0.51058360D-06 -0.86915514D-06
 -0.13473361D-05 -0.18143272D-05 -0.13751467D-05  0.30432460D-05  0.70889813D-05
  0.17291694D-05 -0.16463064D-04  0.17065352D-04 -0.13702425D-04  0.13916876D-04
 -0.78307094D-04 -0.51411700D-08  0.13946468D-06  0.11055821D-04  0.10850604D-07
  0.13894896D-07  0.14867390D-07  0.11830175D-07  0.27227782D-08 -0.45396089D-06
 -0.58132610D-06 -0.62201269D-06 -0.49494359D-06 -0.11391392D-06 -0.36107357D-04
 -0.46237791D-04 -0.49473941D-04 -0.39367058D-04 -0.90605393D-05 -0.84927069D-08
  0.17647866D-08  0.35886517D-06 -0.74572269D-07  0.28545112D-04 -0.59316812D-05
 -0.30434428D-08  0.12215167D-06  0.97138302D-05  0.18372571D-08 -0.70631218D-07
 -0.56167066D-05 -0.22110351D-09  0.29172310D-07  0.23318358D-05 -0.20725887D-05
 -0.20712949D-05  0.41438836D-05 -0.37684358D-10  0.22874904D-09  0.15555159D-06
MO    5     MO 0.0        OCC NO =    2.0000000  ORB. ENERGY =  -56.090519
  0.50662170D-09  0.94312333D-09  0.15514290D-08  0.20833088D-08  0.19615137D-08
  0.16119064D-09 -0.15921203D-08 -0.42305619D-08  0.57030929D-11 -0.67121828D-05
 -0.62809493D-05 -0.48648380D-05  0.10769233D-05  0.10077348D-05  0.78052958D-06
 -0.20107277D-07 -0.18815457D-07 -0.14573299D-07  0.56561731D-08  0.12829657D-04
 -0.20593912D-05  0.28900256D-07 -0.61830432D-08  0.10909009D-04 -0.17542791D-05
  0.25551194D-07  0.17427079D-07 -0.47919117D-05  0.77041444D-06 -0.16944019D-08
  0.14707553D-04 -0.14679233D-04 -0.28319854D-07  0.26859741D-05 -0.10784528D-04
  0.20977437D-05  0.33509535D-06  0.60446421D-06  0.89113957D-06  0.59737451D-05
  0.57169654D-05 -0.10960191D-04 -0.41643704D-05  0.12784247D-04 -0.10599215D-04
  0.54826494D-06  0.98899173D-06  0.14580345D-05  0.97597473D-05  0.93475539D-05
 -0.17913632D-04 -0.66080952D-06 -0.17143852D-04 -0.16843821D-04 -0.88351730D-06
 -0.15937392D-05 -0.23495916D-05 -0.15725959D-04 -0.15065707D-04  0.28861101D-04
  0.23434000D-04  0.13704295D-05  0.27472396D-04 -0.36412019D-08 -0.67904432D-08
 -0.11427314D-07 -0.17992407D-07 -0.23866075D-07 -0.15547522D-07 -0.13224934D-07
 -0.22287098D-07 -0.47497762D-08  0.75230274D-08  0.18733428D-07 -0.12458568D-07
  0.95231985D-08 -0.68446353D-08  0.68450212D-08  0.12827219D-07 -0.83137397D-05
  0.13365773D-05 -0.15206979D-07  0.86601981D+02  0.11582397D+03  0.13378562D+03
 -0.13921312D+02 -0.18618762D+02 -0.21506107D+02  0.17581113D+00  0.23513485D+00
  0.27159889D+00  0.11135426D+03  0.52522056D+02  0.92821640D+01 -0.17900253D+02
 -0.84429472D+01 -0.14921126D+01  0.22606088D+00  0.10662531D+00  0.18843772D-01
  0.98780428D-01  0.20635701D+00  0.13149558D+00 -0.15879004D-01 -0.33171994D-01
 -0.21137982D-01  0.20053170D-03  0.41892025D-03  0.26694592D-03 -0.36760824D-01
  0.59093216D-02 -0.74618355D-04  0.10178452D-01 -0.16361920D-02  0.20656488D-04
 -0.10057314D-02  0.16167226D-03 -0.20408653D-05  0.10143678D-03 -0.16306177D-04
  0.20837524D-06 -0.15718667D-05 -0.11717162D-05 -0.54314446D-06 -0.12700031D-06
 -0.88600395D-05 -0.66045368D-05 -0.30615072D-05 -0.71585444D-06  0.10431906D-04
  0.77762530D-05  0.36046517D-05  0.84285475D-06  0.63107024D-04  0.47041852D-04
  0.21806067D-04  0.50987858D-05  0.50653374D-02  0.37758531D-02  0.17502820D-02
  0.40925825D-03 -0.81416316D-03 -0.60690143D-03 -0.28132679D-03 -0.65781006D-04
  0.44496579D-06 -0.34573158D-06 -0.99234202D-07 -0.46041315D-06 -0.43417349D-04
  0.69890538D-05 -0.13501489D-06  0.12883027D-06  0.61846207D-08 -0.34997490D-08
  0.17485799D-05 -0.28435831D-06 -0.44197854D-10 -0.82535345D-10 -0.14049809D-09
 -0.21779558D-09 -0.29328424D-09 -0.22229113D-09  0.49116711D-09  0.11441318D-08
  0.27908067D-09 -0.26803100D-08  0.28322268D-08 -0.26042955D-08  0.41926772D-08
 -0.21970457D-07 -0.77889613D-06  0.12546595D-06  0.18020426D-08 -0.41671143D-04
 -0.53362577D-04 -0.57097385D-04 -0.45433132D-04 -0.10456679D-04  0.67021952D-05
  0.85825918D-05  0.91832812D-05  0.73072563D-05  0.16818042D-05 -0.12640886D-06
 -0.16187467D-06 -0.17320416D-06 -0.13782080D-06 -0.31720196D-07  0.33436521D-04
 -0.69481173D-05 -0.53777898D-05  0.11175060D-05  0.10127937D-06 -0.21045878D-07
  0.10562671D-04 -0.16988434D-05  0.32291833D-07 -0.54358540D-05  0.87429217D-06
 -0.17088019D-07  0.22528854D-05 -0.36243682D-06  0.81711955D-08 -0.92327118D-07
  0.99717170D-07 -0.73900515D-08 -0.47692025D-07 -0.23709666D-05  0.37881115D-06
MO    6     MO 0.0        OCC NO =    2.0000000  ORB. ENERGY =  -56.090519
 -0.54988325D-10 -0.10236587D-09 -0.16839089D-09 -0.22612071D-09 -0.21290117D-09
 -0.17495507D-10  0.17667780D-09  0.46946599D-09 -0.63287295D-12 -0.10799180D-05
 -0.10105372D-05 -0.78270013D-06 -0.67045867D-05 -0.62738413D-05 -0.48593326D-05
  0.84308174D-07  0.78891678D-07  0.61104654D-07 -0.62258648D-09  0.20638569D-05
  0.12818533D-04 -0.16057693D-06  0.79578708D-09  0.17535530D-05  0.10911120D-04
 -0.13674231D-06 -0.95162315D-09 -0.77038417D-06 -0.47917470D-05  0.59245359D-07
  0.14117261D-05 -0.15463227D-05  0.13459658D-06 -0.29423381D-04 -0.13595050D-05
 -0.10721319D-04  0.82710139D-06  0.14919729D-05  0.21995613D-05  0.14712144D-04
  0.14098172D-04 -0.27008122D-04  0.14907594D-04  0.16244557D-04 -0.25919724D-04
 -0.70441894D-06 -0.12706713D-05 -0.18733044D-05 -0.12524954D-04 -0.12004460D-04
  0.22995632D-04 -0.14937050D-04  0.13333702D-04  0.21726994D-04 -0.12272803D-06
 -0.22138386D-06 -0.32637816D-06 -0.21878180D-05 -0.20942329D-05  0.40134466D-05
  0.30221630D-05 -0.10978447D-04  0.39607126D-05 -0.16949904D-08 -0.31609716D-08
 -0.53194488D-08 -0.83755192D-08 -0.11109729D-07 -0.72374182D-08 -0.72964152D-08
 -0.12296161D-07 -0.26205303D-08  0.92059934D-08  0.15146668D-08  0.14870200D-08
 -0.11064122D-08  0.71435924D-09 -0.66345157D-09 -0.11925605D-08 -0.13365008D-05
 -0.83135573D-05  0.10380422D-06  0.13922422D+02  0.18620247D+02  0.21507822D+02
  0.86595210D+02  0.11581492D+03  0.13377516D+03 -0.10829197D+01 -0.14483279D+01
 -0.16729305D+01  0.17901680D+02  0.84436204D+01  0.14922315D+01  0.11134555D+03
  0.52517950D+02  0.92814383D+01 -0.13924361D+01 -0.65676524D+00 -0.11606938D+00
  0.15880270D-01  0.33174640D-01  0.21139668D-01  0.98772707D-01  0.20634088D+00
  0.13148530D+00 -0.12352054D-02 -0.25804028D-02 -0.16442939D-02 -0.59097935D-02
 -0.36757960D-01  0.45967623D-03  0.16363223D-02  0.10177664D-01 -0.12727605D-03
 -0.16168471D-03 -0.10056552D-02  0.12576110D-04  0.16307253D-04  0.10142968D-03
 -0.12686493D-05 -0.14843026D-06 -0.11064433D-06 -0.51288746D-07 -0.11992549D-07
  0.63473311D-04  0.47314893D-04  0.21932634D-04  0.51283802D-05 -0.63324881D-04
 -0.47204249D-04 -0.21881345D-04 -0.51163877D-05  0.12649858D-04  0.94295806D-05
  0.43710452D-05  0.10220561D-05  0.81428228D-03  0.60699022D-03  0.28136794D-03
  0.65790630D-04  0.50641460D-02  0.37749650D-02  0.17498703D-02  0.40916199D-03
  0.42470543D-07 -0.58551549D-06  0.54304495D-06 -0.95290435D-06 -0.69685972D-05
 -0.43405544D-04 -0.12826267D-07  0.34870163D-07 -0.22043896D-07  0.26943904D-06
  0.27765988D-06  0.17478503D-05  0.46952921D-11  0.87680175D-11  0.14925602D-10
  0.23137184D-10  0.31156607D-10  0.23614762D-10 -0.52179068D-10 -0.12154668D-09
 -0.29648095D-10  0.28459654D-09 -0.30025379D-09  0.26874066D-09 -0.38908891D-09
  0.17723211D-08 -0.12514416D-06 -0.77972117D-06  0.94835799D-08 -0.66978736D-05
 -0.85770577D-05 -0.91773598D-05 -0.73025445D-05 -0.16807197D-05 -0.41684894D-04
 -0.53380186D-04 -0.57116226D-04 -0.45448124D-04 -0.10460129D-04  0.52473377D-06
  0.67195532D-06  0.71898499D-06  0.57210571D-06  0.13167319D-06  0.53743055D-05
 -0.11167820D-05  0.33447604D-04 -0.69504204D-05 -0.42102862D-06  0.87489849D-07
  0.16977573D-05  0.10566133D-04 -0.13302729D-06 -0.87370557D-06 -0.54377306D-05
  0.68491843D-07  0.36207111D-06  0.22540680D-05 -0.28463813D-07 -0.90613920D-08
 -0.20782997D-07  0.29844389D-07  0.18281531D-06 -0.38349104D-06 -0.23713816D-05
MO    7     MO 0.0        OCC NO =    2.0000000  ORB. ENERGY =  -10.090780
  0.43812454D+00  0.81560950D+00  0.13416700D+01  0.18016376D+01  0.16963097D+01
  0.13939706D+00  0.37095193D+00  0.98568873D+00 -0.13287773D-02  0.35190938D-06
  0.32930048D-06  0.25505595D-06 -0.36744456D-05 -0.34383758D-05 -0.26631550D-05
 -0.28668603D-03 -0.26826749D-03 -0.20778354D-03  0.78535046D-02 -0.13841148D-06
  0.17742453D-05  0.13885941D-03 -0.13396832D-02  0.15819277D-07  0.69162957D-07
  0.58527071D-05 -0.67219553D-03  0.11617943D-08 -0.12769952D-06 -0.10134300D-04
  0.85235707D-03  0.85221302D-03 -0.17045701D-02 -0.14710384D-07  0.75002661D-06
 -0.64144659D-04  0.38026801D-04  0.68594924D-04  0.10112700D-03 -0.12323157D-02
  0.66998572D-03  0.30414441D-04 -0.12272511D-02 -0.20243357D-02  0.69906629D-04
  0.38022631D-04  0.68587402D-04  0.10111591D-03 -0.12323333D-02  0.66999278D-03
  0.30410092D-04 -0.11401571D-02  0.20757769D-02  0.18494957D-04  0.38046373D-04
  0.68630229D-04  0.10117905D-03 -0.12322497D-02  0.66996582D-03  0.30439288D-04
  0.23672068D-02 -0.49720325D-04  0.45666615D-04 -0.28472597D-06 -0.53098278D-06
 -0.89356566D-06 -0.14069271D-05 -0.18662221D-05 -0.12157478D-05  0.10768678D-04
  0.18147735D-04  0.38676044D-05 -0.89938099D-04  0.15928221D-03 -0.20645427D-03
  0.18209194D-03 -0.16592120D-03  0.15755931D-03  0.70632782D-04 -0.15032484D-08
  0.95814963D-07  0.76350156D-05 -0.45432452D-07 -0.60762664D-07 -0.70185565D-07
  0.40762366D-05  0.54516757D-05  0.62971061D-05  0.32503923D-03  0.43471679D-03
  0.50213143D-03 -0.14071974D-06 -0.66372766D-07 -0.11729984D-07  0.88611689D-05
  0.41795153D-05  0.73864104D-06  0.70561901D-03  0.33281675D-03  0.58818331D-04
  0.18465250D-07  0.38574784D-07  0.24580768D-07 -0.95750416D-06 -0.20002717D-05
 -0.12746206D-05 -0.76170951D-04 -0.15912474D-03 -0.10139806D-03 -0.70851714D-07
  0.29055996D-05  0.23080072D-03  0.53226331D-07 -0.22718346D-05 -0.18050717D-03
 -0.12496930D-07  0.35692265D-06  0.28256198D-04  0.12756364D-08  0.64030197D-06
  0.51259143D-04 -0.15456504D-02 -0.11521737D-02 -0.53408564D-03 -0.12488214D-03
 -0.15449800D-02 -0.11516741D-02 -0.53385401D-03 -0.12482798D-03  0.30906304D-02
  0.23038478D-02  0.10679396D-02  0.24971012D-03 -0.34846667D-09 -0.25975742D-09
 -0.12040954D-09 -0.28154662D-10 -0.82814228D-06 -0.61732188D-06 -0.28615715D-06
 -0.66910461D-07  0.11612046D-03  0.86559640D-04  0.40124383D-04  0.93820511D-05
  0.15385161D-03  0.15378543D-03 -0.30763704D-03 -0.10743328D-09  0.79587907D-07
 -0.11557762D-04 -0.47484372D-04 -0.47465098D-04  0.94949470D-04  0.30614240D-09
 -0.20858627D-07  0.35661928D-05 -0.11925980D-05 -0.22270649D-05 -0.37910833D-05
 -0.58768144D-05 -0.79137374D-05 -0.59981185D-05  0.78854908D-05  0.18368577D-04
  0.44805282D-05 -0.76978709D-04  0.10169932D-03 -0.94023395D-04  0.60723337D-04
  0.13637656D-03  0.31146315D-08 -0.14026774D-06 -0.11168274D-04 -0.64971952D-07
 -0.83200761D-07 -0.89023922D-07 -0.70837493D-07 -0.16303628D-07 -0.20164190D-05
 -0.25821542D-05 -0.27628773D-05 -0.21984574D-05 -0.50598674D-06 -0.16213063D-03
 -0.20761869D-03 -0.22214977D-03 -0.17676746D-03 -0.40683978D-04  0.15383646D-07
 -0.31967254D-08  0.22289166D-05 -0.46316942D-06  0.17833624D-03 -0.37058314D-04
  0.15682895D-07  0.67695439D-06  0.54331360D-04 -0.96311866D-08 -0.28317819D-07
 -0.24056840D-05  0.16620764D-07 -0.53562596D-06 -0.42539194D-04 -0.45858811D-04