 Single Point Energy
GAUSSIAN             31 MOL ORBITALS    210 PRIMITIVES        6 NUCLEI   B3LYP
  C    1    (CENTRE  1)  -2.49546318  0.02401313  0.24420649  CHARGE =  6.0
  H    2    (CENTRE  2)  -1.72654631 -1.01402815  1.82944078  CHARGE =  1.0
  H    3    (CENTRE  3)  -2.05366597 -0.89677616 -1.52742891  CHARGE =  1.0
  H    4    (CENTRE  4)  -1.85303440  1.96540341  0.24940630  CHARGE =  1.0
  Br   5    (CENTRE  5)   3.49719426 -0.03333129 -0.34212678  CHARGE = 35.0
  Cl   6    (CENTRE  6)  -5.98798666  0.05693630  0.58575177  CHARGE = 17.0
CENTRE ASSIGNMENTS    1  1  1  1  1  1  1  1  1  1  1  1  1  1  1  1  1  1  1  1
CENTRE ASSIGNMENTS    1  1  1  1  1  1  1  1  1  1  1  1  1  1  1  1  2  2  2  2
CENTRE ASSIGNMENTS    2  2  2  2  2  3  3  3  3  3  3  3  3  3  4  4  4  4  4  4
CENTRE ASSIGNMENTS    4  4  4  5  5  5  5  5  5  5  5  5  5  5  5  5  5  5  5  5
CENTRE ASSIGNMENTS    5  5  5  5  5  5  5  5  5  5  5  5  5  5  5  5  5  5  5  5
CENTRE ASSIGNMENTS    5  5  5  5  5  5  5  5  5  5  5  5  5  5  5  5  5  5  5  5
CENTRE ASSIGNMENTS    5  5  5  5  5  5  5  5  5  5  5  5  5  5  5  5  5  5  5  5
CENTRE ASSIGNMENTS    5  5  5  5  5  5  5  5  5  5  5  5  5  5  5  5  5  6  6  6
CENTRE ASSIGNMENTS    6  6  6  6  6  6  6  6  6  6  6  6  6  6  6  6  6  6  6  6
CENTRE ASSIGNMENTS    6  6  6  6  6  6  6  6  6  6  6  6  6  6  6  6  6  6  6  6
CENTRE ASSIGNMENTS    6  6  6  6  6  6  6  6  6  6
TYPE ASSIGNMENTS      1  1  1  1  1  1  1  1  1  2  2  2  3  3  3  4  4  4  1  2
TYPE ASSIGNMENTS      3  4  1  2  3  4  1  2  3  4  5  6  7  8  9 10  1  1  1  1
TYPE ASSIGNMENTS      1  1  2  3  4  1  1  1  1  1  1  2  3  4  1  1  1  1  1  1
TYPE ASSIGNMENTS      2  3  4  1  1  1  1  1  1  1  1  1  1  1  1  1  1  1  1  2
TYPE ASSIGNMENTS      3  4  2  2  2  3  3  3  4  4  4  2  2  2  3  3  3  4  4  4
TYPE ASSIGNMENTS      2  2  2  3  3  3  4  4  4  2  3  4  2  3  4  2  3  4  2  3
TYPE ASSIGNMENTS      4  5  5  5  5  6  6  6  6  7  7  7  7  8  8  8  8  9  9  9
TYPE ASSIGNMENTS      9 10 10 10 10  5  6  7  8  9 10  5  6  7  8  9 10  1  1  1
TYPE ASSIGNMENTS      1  1  1  1  1  1  1  1  1  1  1  2  3  4  2  2  2  2  2  3
TYPE ASSIGNMENTS      3  3  3  3  4  4  4  4  4  2  2  3  3  4  4  2  3  4  2  3
TYPE ASSIGNMENTS      4  2  3  4  5  6  7  8  9 10
EXPONENTS  0.4563240D+04 0.6820240D+03 0.1549730D+03 0.4445530D+02 0.1302900D+02
EXPONENTS  0.1827730D+01 0.2096420D+02 0.4803310D+01 0.1459330D+01 0.2096420D+02
EXPONENTS  0.4803310D+01 0.1459330D+01 0.2096420D+02 0.4803310D+01 0.1459330D+01
EXPONENTS  0.2096420D+02 0.4803310D+01 0.1459330D+01 0.4834560D+00 0.4834560D+00
EXPONENTS  0.4834560D+00 0.4834560D+00 0.1455850D+00 0.1455850D+00 0.1455850D+00
EXPONENTS  0.1455850D+00 0.4380000D-01 0.4380000D-01 0.4380000D-01 0.4380000D-01
EXPONENTS  0.6260000D+00 0.6260000D+00 0.6260000D+00 0.6260000D+00 0.6260000D+00
EXPONENTS  0.6260000D+00 0.3386500D+02 0.5094790D+01 0.1158790D+01 0.3258400D+00
EXPONENTS  0.1027410D+00 0.3600000D-01 0.7500000D+00 0.7500000D+00 0.7500000D+00
EXPONENTS  0.3386500D+02 0.5094790D+01 0.1158790D+01 0.3258400D+00 0.1027410D+00
EXPONENTS  0.3600000D-01 0.7500000D+00 0.7500000D+00 0.7500000D+00 0.3386500D+02
EXPONENTS  0.5094790D+01 0.1158790D+01 0.3258400D+00 0.1027410D+00 0.3600000D-01
EXPONENTS  0.7500000D+00 0.7500000D+00 0.7500000D+00 0.4397000D+06 0.6603000D+05
EXPONENTS  0.1514000D+05 0.4317000D+04 0.1414000D+04 0.5239000D+03 0.5239000D+03
EXPONENTS  0.2077000D+03 0.8654000D+02 0.3052000D+02 0.1298000D+02 0.4412000D+01
EXPONENTS  0.1862000D+01 0.3932000D+00 0.1400000D+00 0.3500000D-01 0.3500000D-01
EXPONENTS  0.3500000D-01 0.3500000D-01 0.2957000D+04 0.7003000D+03 0.2246000D+03
EXPONENTS  0.2957000D+04 0.7003000D+03 0.2246000D+03 0.2957000D+04 0.7003000D+03
EXPONENTS  0.2246000D+03 0.8259000D+02 0.3319000D+02 0.1420000D+02 0.8259000D+02
EXPONENTS  0.3319000D+02 0.1420000D+02 0.8259000D+02 0.3319000D+02 0.1420000D+02
EXPONENTS  0.1420000D+02 0.7438000D+01 0.3526000D+01 0.1420000D+02 0.7438000D+01
EXPONENTS  0.3526000D+01 0.1420000D+02 0.7438000D+01 0.3526000D+01 0.1595000D+01
EXPONENTS  0.1595000D+01 0.1595000D+01 0.8462000D+00 0.8462000D+00 0.8462000D+00
EXPONENTS  0.3186000D+00 0.3186000D+00 0.3186000D+00 0.1096000D+00 0.1096000D+00
EXPONENTS  0.1096000D+00 0.1348000D+03 0.3639000D+02 0.1216000D+02 0.4341000D+01
EXPONENTS  0.1348000D+03 0.3639000D+02 0.1216000D+02 0.4341000D+01 0.1348000D+03
EXPONENTS  0.3639000D+02 0.1216000D+02 0.4341000D+01 0.1348000D+03 0.3639000D+02
EXPONENTS  0.1216000D+02 0.4341000D+01 0.1348000D+03 0.3639000D+02 0.1216000D+02
EXPONENTS  0.4341000D+01 0.1348000D+03 0.3639000D+02 0.1216000D+02 0.4341000D+01
EXPONENTS  0.1535000D+01 0.1535000D+01 0.1535000D+01 0.1535000D+01 0.1535000D+01
EXPONENTS  0.1535000D+01 0.4510000D+00 0.4510000D+00 0.4510000D+00 0.4510000D+00
EXPONENTS  0.4510000D+00 0.4510000D+00 0.1058190D+06 0.1587200D+05 0.3619650D+04
EXPONENTS  0.1030800D+04 0.3399080D+03 0.1245380D+03 0.1245380D+03 0.4951350D+02
EXPONENTS  0.2080560D+02 0.6583460D+01 0.2564680D+01 0.5597630D+00 0.1832730D+00
EXPONENTS  0.4830000D-01 0.4830000D-01 0.4830000D-01 0.4830000D-01 0.5897760D+03
EXPONENTS  0.1398490D+03 0.4514130D+02 0.1687330D+02 0.2771520D+01 0.5897760D+03
EXPONENTS  0.1398490D+03 0.4514130D+02 0.1687330D+02 0.2771520D+01 0.5897760D+03
EXPONENTS  0.1398490D+03 0.4514130D+02 0.1687330D+02 0.2771520D+01 0.6741100D+01
EXPONENTS  0.2771520D+01 0.6741100D+01 0.2771520D+01 0.6741100D+01 0.2771520D+01
EXPONENTS  0.1023870D+01 0.1023870D+01 0.1023870D+01 0.3813680D+00 0.3813680D+00
EXPONENTS  0.3813680D+00 0.1094370D+00 0.1094370D+00 0.1094370D+00 0.7500000D+00
EXPONENTS  0.7500000D+00 0.7500000D+00 0.7500000D+00 0.7500000D+00 0.7500000D+00
MO    1     MO 0.0        OCC NO =    2.0000000  ORB. ENERGY = -482.554630
 -0.91542871D-08 -0.17041555D-07 -0.28033198D-07 -0.37643880D-07 -0.35443132D-07
 -0.29125981D-08  0.36575213D-07  0.97187191D-07 -0.13101512D-09  0.31567000D-05
  0.29538934D-05  0.22879046D-05 -0.29960524D-07 -0.28035668D-07 -0.21714709D-07
 -0.30876415D-06 -0.28892717D-06 -0.22378526D-06 -0.42666884D-06 -0.27412415D-05
  0.26479385D-07  0.26830653D-06  0.19453364D-05  0.30278608D-05 -0.28302852D-07
 -0.29600142D-06  0.40970162D-05  0.86684329D-06 -0.82162244D-08 -0.84786798D-07
 -0.22345965D-06  0.11355122D-06  0.10990843D-06  0.68564284D-08  0.66036757D-07
 -0.78640971D-09  0.17682993D-06  0.31897597D-06  0.47025466D-06 -0.18204568D-05
 -0.19446321D-05 -0.17023803D-05 -0.12495103D-05 -0.59505835D-06  0.10990066D-05
  0.17678380D-06  0.31889275D-06  0.47013197D-06 -0.18202469D-05 -0.19442860D-05
 -0.17026379D-05 -0.14414787D-05 -0.52565828D-06 -0.87534394D-06  0.17692441D-06
  0.31914640D-06  0.47050592D-06 -0.18208971D-05 -0.19453485D-05 -0.17018515D-05
 -0.13247725D-05  0.11597919D-05  0.16950463D-06  0.38584360D+01  0.71955610D+01
  0.12109067D+02  0.19065834D+02  0.25289925D+02  0.16475088D+02  0.96359571D+01
  0.16238835D+02  0.34607840D+01  0.81717336D-01 -0.11301594D-01  0.24780285D-02
 -0.63773694D-03  0.68131750D-04 -0.19225176D-04  0.21533146D-05 -0.33274478D-06
  0.31454416D-08  0.32542224D-07 -0.12168004D-03 -0.16273838D-03 -0.18797538D-03
  0.11685191D-05  0.15628109D-05  0.18051671D-05  0.11912481D-04  0.15932094D-04
  0.18402797D-04 -0.33437187D-04 -0.15771196D-04 -0.27872258D-05  0.32478771D-06
  0.15319144D-06  0.27073351D-07  0.32748991D-05  0.15446597D-05  0.27298598D-06
  0.25448473D-05  0.53163070D-05  0.33876770D-05 -0.24560458D-07 -0.51307964D-07
 -0.32694652D-07 -0.24908703D-06 -0.52035464D-06 -0.33158232D-06 -0.89653984D-05
  0.86448783D-07  0.87745209D-06  0.71531098D-05 -0.68944404D-07 -0.70006376D-06
 -0.32343813D-05  0.31140654D-07  0.31652962D-06  0.17360740D-05 -0.16680941D-07
 -0.16988650D-06 -0.46618238D-04 -0.34750621D-04 -0.16108514D-04 -0.37665602D-05
  0.23640968D-04  0.17622681D-04  0.81689247D-05  0.19100922D-05  0.22977270D-04
  0.17127940D-04  0.79395897D-05  0.18564681D-05  0.13586785D-05  0.10127993D-05
  0.46947917D-06  0.10977558D-06  0.13755277D-04  0.10253592D-04  0.47530127D-05
  0.11113693D-05 -0.13197765D-06 -0.98380065D-07 -0.45603695D-07 -0.10663247D-07
  0.36240977D-05 -0.18378626D-05 -0.17862351D-05 -0.10564907D-06 -0.10693582D-05
  0.10279389D-07 -0.86013393D-06  0.43619438D-06  0.42393954D-06  0.25069109D-07
  0.25379757D-06 -0.24406099D-08  0.59073464D-07  0.11031415D-06  0.18778534D-06
  0.29109874D-06  0.39199451D-06  0.29710735D-06 -0.21481066D-06 -0.50038307D-06
 -0.12205521D-06  0.79655070D-06 -0.75352290D-06  0.43125250D-06  0.12133653D-06
  0.34080856D-05  0.27498971D-06 -0.25738365D-08 -0.26885006D-07 -0.92196561D-06
 -0.11806362D-05 -0.12632681D-05 -0.10051989D-05 -0.23135190D-06  0.72017148D-08
  0.92222587D-08  0.98677179D-08  0.78518715D-08  0.18071503D-08  0.89599010D-07
  0.11473729D-06  0.12276767D-06  0.97687832D-07  0.22483378D-07  0.74778866D-06
 -0.15539067D-06 -0.57227438D-08  0.11891876D-08 -0.72627427D-07  0.15091997D-07
  0.21674695D-06 -0.17137454D-08 -0.21071456D-07  0.13612143D-06 -0.14362102D-08
 -0.13370649D-07  0.91289249D-06 -0.85756467D-08 -0.89263060D-07  0.64824780D-06
 -0.32871546D-06 -0.31953234D-06 -0.18336208D-07 -0.19108184D-06  0.17711114D-08
MO    2     MO 0.0        OCC NO =    2.0000000  ORB. ENERGY = -101.412659
  0.18516429D-05  0.34470052D-05  0.56702912D-05  0.76142494D-05  0.71691028D-05
  0.58913291D-06 -0.43629766D-05 -0.11593246D-04  0.15628505D-07 -0.52110240D-04
 -0.48762346D-04 -0.37768322D-04  0.49259022D-06  0.46094308D-06  0.35701823D-06
  0.50965742D-05  0.47691378D-05  0.36938815D-05 -0.50438776D-05  0.27377959D-04
 -0.25981189D-06 -0.26781875D-05  0.59207567D-04 -0.25218083D-04  0.23835441D-06
  0.24664108D-05 -0.12266532D-03  0.26796779D-04 -0.25313081D-06 -0.26207268D-05
 -0.14544369D-04  0.73754701D-05  0.71688994D-05  0.41196835D-06  0.42870147D-05
 -0.39606161D-07  0.74600670D-06  0.13456897D-05  0.19839013D-05 -0.24006384D-04
  0.29462281D-05  0.35865602D-05  0.14268978D-04 -0.92582828D-05  0.13300400D-04
  0.74599039D-06  0.13456602D-05  0.19838579D-05 -0.24006517D-04  0.29461705D-05
  0.35870928D-05  0.11375978D-04 -0.82207543D-05 -0.16411085D-04  0.74605199D-06
  0.13457713D-05  0.19840217D-05 -0.24006338D-04  0.29462365D-05  0.35854463D-05
  0.13146553D-04  0.17111803D-04 -0.68382868D-06  0.30307375D-07  0.56519939D-07
  0.95114717D-07  0.14975897D-06  0.19864817D-06  0.12940908D-06 -0.10422452D-05
 -0.17564263D-05 -0.37432562D-06  0.63482381D-05 -0.89758929D-05  0.85900354D-05
 -0.60541104D-05  0.43674762D-05 -0.60169346D-05 -0.12477275D-04  0.19618647D-05
 -0.19020673D-07 -0.19203426D-06  0.79709751D-05  0.10660611D-04  0.12313828D-04
 -0.79216848D-07 -0.10594688D-06 -0.12237682D-06 -0.78091697D-06 -0.10444207D-05
 -0.12063865D-05 -0.24982560D-04 -0.11783433D-04 -0.20824729D-05  0.24847364D-06
  0.11719666D-06  0.20712034D-07  0.24476080D-05  0.11544543D-05  0.20402542D-06
  0.30246321D-05  0.63186002D-05  0.40263619D-05 -0.30104051D-07 -0.62888794D-07
 -0.40074231D-07 -0.29633910D-06 -0.61906646D-06 -0.39448384D-06 -0.10337442D-04
  0.10328222D-06  0.10129570D-05  0.70801518D-05 -0.71197233D-07 -0.69394465D-06
 -0.18013069D-05  0.18620344D-07  0.17673462D-06  0.19773434D-05 -0.19493797D-07
 -0.19366993D-06  0.10828354D-03  0.80717771D-04  0.37416408D-04  0.87488610D-05
 -0.54913841D-04 -0.40934410D-04 -0.18974986D-04 -0.44368106D-05 -0.53369701D-04
 -0.39783362D-04 -0.18441422D-04 -0.43120504D-05 -0.30324903D-05 -0.22605084D-05
 -0.10478498D-05 -0.24501263D-06 -0.31905949D-04 -0.23783643D-04 -0.11024815D-04
 -0.25778684D-05  0.29624150D-06  0.22082722D-06  0.10236360D-06  0.23935084D-07
 -0.83414046D-05  0.42301693D-05  0.41112353D-05  0.23358788D-06  0.24578104D-05
 -0.22813906D-07  0.19222390D-05 -0.97481492D-06 -0.94742409D-06 -0.53777638D-07
 -0.56637805D-06  0.52474732D-08  0.12702089D+01  0.23719959D+01  0.40377960D+01
  0.62592604D+01  0.84287404D+01  0.63884587D+01  0.23318112D+01  0.54317550D+01
  0.13249329D+01  0.43928423D-01 -0.57171273D-02  0.69104255D-03 -0.22957407D-03
  0.15368028D-03  0.23485093D-04 -0.22099294D-06 -0.22965494D-05  0.91912851D-03
  0.11770031D-02  0.12593807D-02  0.10021056D-02  0.23063998D-03 -0.86593173D-05
 -0.11088812D-04 -0.11864910D-04 -0.94410635D-05 -0.21729113D-05 -0.89884324D-04
 -0.11510265D-03 -0.12315861D-03 -0.97998904D-04 -0.22554973D-04 -0.18965158D-03
  0.39409644D-04  0.17864538D-05 -0.37122554D-06  0.18546586D-04 -0.38539852D-05
 -0.67996977D-04  0.64044878D-06  0.66495875D-05  0.54757451D-05 -0.51474804D-07
 -0.53546928D-06 -0.19862601D-04  0.18703886D-06  0.19423601D-05 -0.15553266D-04
  0.78877550D-05  0.76655112D-05  0.44218068D-06  0.45851832D-05 -0.43288610D-07
MO    3     MO 0.0        OCC NO =    2.0000000  ORB. ENERGY =  -62.207628
 -0.61937470D-07 -0.11530235D-06 -0.18967128D-06 -0.25469670D-06 -0.23980654D-06
 -0.19706500D-07  0.44760057D-06  0.11893585D-05 -0.16033384D-08  0.43532281D-04
  0.40735489D-04  0.31551211D-04 -0.41319008D-06 -0.38664411D-06 -0.29947081D-06
 -0.42580008D-05 -0.39844397D-05 -0.30861025D-05 -0.61626443D-05 -0.38629989D-04
  0.37299823D-06  0.37809566D-05  0.27483366D-04  0.42862340D-04 -0.40065258D-06
 -0.41901886D-05  0.59048755D-04  0.12297579D-04 -0.11655785D-06 -0.12028377D-05
 -0.31788258D-05  0.16152892D-05  0.15635367D-05  0.97291702D-07  0.93931501D-06
 -0.11145929D-07  0.24348336D-05  0.43920924D-05  0.64751019D-05 -0.25514708D-04
 -0.27813741D-04 -0.24368924D-04 -0.17536887D-04 -0.82817570D-05  0.15312132D-04
  0.24341940D-05  0.43909387D-05  0.64734011D-05 -0.25511814D-04 -0.27808800D-04
 -0.24372605D-04 -0.20209028D-04 -0.73157207D-05 -0.12170627D-04  0.24361433D-05
  0.43944549D-05  0.64785849D-05 -0.25520786D-04 -0.27823961D-04 -0.24361379D-04
 -0.18584609D-04  0.16145547D-04  0.23735722D-05 -0.12742144D+01 -0.23762704D+01
 -0.39989124D+01 -0.62963231D+01 -0.83517742D+01 -0.54407520D+01 -0.53839910D+01
 -0.90732807D+01 -0.19336772D+01  0.58198772D+01  0.24292377D+01  0.10305763D+00
 -0.10900657D-01  0.98910595D-03 -0.27638141D-03  0.30851488D-04 -0.47508640D-05
  0.44910270D-07  0.46463112D-06 -0.27466058D-02 -0.36733893D-02 -0.42430480D-02
  0.27404128D-04  0.36651066D-04  0.42334809D-04  0.26962881D-03  0.36060930D-03
  0.41653157D-03 -0.40542888D-02 -0.19122716D-02 -0.33795362D-03  0.40362846D-04
  0.19037796D-04  0.33645284D-05  0.39792392D-03  0.18768733D-03  0.33169770D-04
  0.20367605D-04  0.42548896D-04  0.27113166D-04 -0.19262744D-06 -0.40240787D-06
 -0.25642384D-06 -0.19900868D-05 -0.41573860D-05 -0.26491850D-05 -0.11312226D-03
  0.10887414D-05  0.11069071D-04  0.96118363D-04 -0.92616731D-06 -0.94063983D-05
 -0.45232586D-04  0.43552583D-06  0.44266092D-05  0.24592559D-04 -0.23629955D-06
 -0.24065438D-05 -0.44884673D-03 -0.33458369D-03 -0.15509496D-03 -0.36264954D-04
  0.22758268D-03  0.16964689D-03  0.78639155D-04  0.18387736D-04  0.22126405D-03
  0.16493680D-03  0.76455809D-04  0.17877217D-04  0.13004493D-04  0.96939358D-05
  0.44935861D-05  0.10507091D-05  0.13236077D-03  0.98665655D-04  0.45736079D-04
  0.10694201D-04 -0.12293048D-05 -0.91636034D-06 -0.42477526D-06 -0.99322728D-07
  0.47622563D-04 -0.24150088D-04 -0.23472475D-04 -0.13874322D-05 -0.14050842D-04
  0.13442457D-06 -0.11853435D-04  0.60111359D-05  0.58422992D-05  0.34548478D-06
  0.34975324D-05 -0.33560040D-07  0.17692506D-06  0.33039094D-06  0.56241717D-06
  0.87184087D-06  0.11740238D-05  0.88983666D-06 -0.18298580D-05 -0.42624977D-05
 -0.10397235D-05  0.96586708D-05 -0.98743402D-05  0.59946614D-05  0.16611786D-05
  0.48213205D-04  0.38763013D-05 -0.36279263D-07 -0.37897469D-06 -0.10756705D-04
 -0.13774653D-04 -0.14738731D-04 -0.11727800D-04 -0.26992159D-05  0.84250762D-07
  0.10788852D-06  0.11543955D-06  0.91856755D-07  0.21141324D-07  0.10454430D-05
  0.13387569D-05  0.14324556D-05  0.11398235D-05  0.26233649D-06  0.81547189D-05
 -0.16945526D-05 -0.62888210D-07  0.13068185D-07 -0.79218676D-06  0.16461660D-06
  0.27393076D-05 -0.21607229D-07 -0.26628480D-06  0.19986538D-05 -0.20933900D-07
 -0.19626185D-06  0.12943716D-04 -0.12159701D-06 -0.12656441D-05  0.91806834D-05
 -0.46553763D-05 -0.45253072D-05 -0.25969992D-06 -0.27061642D-05  0.25088869D-07
MO    4     MO 0.0        OCC NO =    2.0000000  ORB. ENERGY =  -56.025438
 -0.34940880D-05 -0.65045691D-05 -0.10699955D-04 -0.14368244D-04 -0.13528243D-04
 -0.11117058D-05  0.10205597D-04  0.27118182D-04 -0.36557203D-07 -0.17970381D-04
 -0.16815849D-04 -0.13024525D-04  0.17866554D-06  0.16718693D-06  0.12949274D-06
  0.17598649D-05  0.16468000D-05  0.12755102D-05 -0.26839230D-04 -0.12123283D-04
  0.10241521D-06  0.11812522D-05 -0.29066284D-04  0.18034951D-05 -0.14819651D-07
 -0.17656403D-06 -0.10087475D-03  0.42171282D-04 -0.39982492D-06 -0.41246401D-05
  0.34561705D-04 -0.17533171D-04 -0.17028534D-04 -0.98410757D-06 -0.10188647D-04
  0.99222104D-07 -0.84909837D-05 -0.15316523D-04 -0.22580592D-04  0.49735118D-04
 -0.11530522D-04  0.34824196D-05  0.17372348D-04  0.23675565D-04 -0.40116089D-04
 -0.84917817D-05 -0.15317963D-04 -0.22582715D-04  0.49739886D-04 -0.11538336D-04
  0.34907742D-05  0.24944681D-04  0.20960011D-04  0.37541378D-04 -0.84890195D-05
 -0.15312980D-04 -0.22575369D-04  0.49724438D-04 -0.11523533D-04  0.34744328D-05
  0.20282149D-04 -0.45257504D-04 -0.35595023D-05 -0.43483316D-04 -0.81091627D-04
 -0.13646524D-03 -0.21486573D-03 -0.28500921D-03 -0.18566887D-03 -0.19460075D-03
 -0.32794765D-03 -0.69891465D-04  0.25794472D-03  0.70334434D-05  0.80662517D-04
 -0.55934292D-04  0.29804971D-04 -0.20026163D-04 -0.31865265D-04 -0.30309336D-05
  0.31170349D-07  0.29821846D-06  0.87290159D+02  0.11674436D+03  0.13484874D+03
 -0.86191070D+00 -0.11527441D+01 -0.13315083D+01 -0.85595224D+01 -0.11447751D+02
 -0.13223035D+02  0.11223949D+03  0.52939592D+02  0.93559546D+01 -0.11082627D+01
 -0.52273025D+00 -0.92381531D-01 -0.11006011D+02 -0.51911651D+01 -0.91742878D+00
  0.99649686D-01  0.20817293D+00  0.13265273D+00 -0.98392984D-03 -0.20554762D-02
 -0.13097982D-02 -0.97714613D-02 -0.20413047D-01 -0.13007678D-01 -0.37272274D-01
  0.36795907D-03  0.36548019D-02  0.10416126D-01 -0.10279726D-03 -0.10213482D-02
 -0.10663875D-02  0.10512107D-04  0.10455524D-03  0.12186726D-03 -0.11971857D-05
 -0.11945576D-04 -0.63495120D-03 -0.47331150D-03 -0.21940170D-03 -0.51301423D-04
  0.32202350D-03  0.24004589D-03  0.11127233D-03  0.26018163D-04  0.31292770D-03
  0.23326561D-03  0.10812936D-03  0.25283260D-04  0.18825008D-04  0.14032721D-04
  0.65048128D-05  0.15209826D-05  0.18767775D-03  0.13990058D-03  0.64850365D-04
  0.15163584D-04 -0.19545506D-05 -0.14569801D-05 -0.67537744D-06 -0.15791958D-06
  0.20420742D-04 -0.10356591D-04 -0.10064151D-04 -0.60144385D-06 -0.60301234D-05
  0.63225390D-07 -0.43445963D-05  0.22033878D-05  0.21412085D-05  0.12790535D-06
  0.12824982D-05 -0.13060603D-07  0.18893657D-06  0.35282132D-06  0.60059991D-06
  0.93103051D-06  0.12537287D-05  0.95024804D-06 -0.20940634D-05 -0.48779416D-05
 -0.11898448D-05  0.11580194D-04 -0.12583306D-04  0.11570867D-04 -0.14001444D-04
  0.15760644D-03  0.16619454D-04 -0.15428942D-06 -0.16243527D-05 -0.79819927D-04
 -0.10221455D-03 -0.10936847D-03 -0.87025913D-04 -0.20029480D-04  0.76892444D-06
  0.98465717D-06  0.10535726D-05  0.83834143D-06  0.19294877D-06  0.78166797D-05
  0.10009761D-04  0.10710337D-04  0.85223542D-05  0.19614655D-05  0.60487870D-04
 -0.12569394D-04 -0.58335496D-06  0.12122130D-06 -0.59239728D-05  0.12310030D-05
  0.23731063D-04 -0.22795165D-06 -0.23235047D-05 -0.12539472D-04  0.12052334D-06
  0.12277503D-05  0.12485671D-04 -0.11959430D-06 -0.12218835D-05  0.55207670D-06
 -0.28001342D-06 -0.27206328D-06 -0.15407852D-07 -0.16261782D-06  0.16612524D-08
MO    5     MO 0.0        OCC NO =    2.0000000  ORB. ENERGY =  -56.025365
 -0.70925887D-09 -0.13203512D-08 -0.21719654D-08 -0.29165849D-08 -0.27460747D-08
 -0.22566324D-09  0.19687286D-08  0.52312805D-08 -0.70521316D-11  0.87209919D-06
  0.81606997D-06  0.63207774D-06  0.15297581D-05  0.14314767D-05  0.11087340D-05
  0.88331724D-05  0.82656731D-05  0.64020833D-05 -0.39183758D-08 -0.31322926D-06
 -0.54161766D-06 -0.31291010D-05 -0.15203933D-07  0.85868870D-06  0.14993776D-05
  0.86564959D-05 -0.24909150D-07 -0.19391562D-06 -0.35203141D-06 -0.20325723D-05
  0.54871403D-06 -0.58078011D-07 -0.49063602D-06  0.96584578D-06  0.53879078D-05
  0.17574732D-06  0.55191193D-06  0.99557037D-06  0.14677331D-05 -0.75048537D-06
 -0.14750505D-04  0.16207120D-04 -0.11098363D-04 -0.92345647D-05  0.59886994D-05
 -0.70824231D-06 -0.12775681D-05 -0.18834721D-05  0.98941187D-06  0.18789148D-04
 -0.20638621D-04  0.15599838D-04  0.75246444D-05  0.75865767D-05  0.14924438D-06
  0.26921556D-06  0.39689470D-06 -0.19446205D-06 -0.40336634D-05  0.44339663D-05
 -0.38650674D-05  0.27777271D-05 -0.74131158D-05  0.59267768D-08  0.11052790D-07
  0.18600215D-07  0.29286204D-07  0.38846761D-07  0.25306670D-07  0.22494957D-07
  0.37909249D-07  0.80791339D-08 -0.18188420D-07 -0.24273768D-07  0.16086430D-07
 -0.11841840D-07  0.60373638D-08 -0.37973494D-08 -0.51286675D-08 -0.81453717D-06
 -0.14158226D-05 -0.81730378D-05  0.85812444D+01  0.11476802D+02  0.13256592D+02
  0.14900105D+02  0.19927828D+02  0.23018179D+02  0.86011298D+02  0.11503398D+03
  0.13287312D+03  0.11033982D+02  0.52043581D+01  0.91976036D+00  0.19158934D+02
  0.90366245D+01  0.15970325D+01  0.11059551D+03  0.52164182D+02  0.92189174D+01
  0.97901304D-02  0.20452048D-01  0.13032530D-01  0.16999134D-01  0.35511998D-01
  0.22629088D-01  0.98127990D-01  0.20499403D+00  0.13062706D+00 -0.36426583D-02
 -0.63248502D-02 -0.36510357D-01  0.10078102D-02  0.17498395D-02  0.10100989D-01
 -0.99261123D-04 -0.17232695D-03 -0.99476271D-03  0.99263244D-05  0.17227480D-04
  0.99446422D-04 -0.68842836D-04 -0.51317497D-04 -0.23788025D-04 -0.55622156D-05
  0.28053929D-06  0.20912233D-06  0.96937838D-07  0.22666411D-07  0.68562297D-04
  0.51108375D-04  0.23691087D-04  0.55395492D-05 -0.11821352D-03 -0.88119873D-04
 -0.40847623D-04 -0.95511621D-05 -0.68223920D-03 -0.50856138D-03 -0.23574164D-03
 -0.55122097D-04  0.24967354D-04  0.18611408D-04  0.86272454D-05  0.20172586D-05
  0.82126569D-06  0.37640593D-07 -0.85890628D-06  0.13817268D-05  0.81087451D-05
 -0.59094378D-06 -0.91453763D-07 -0.12567836D-07  0.10402160D-06 -0.14799062D-06
 -0.89962761D-06  0.12579039D-06  0.15804852D-10  0.29514079D-10  0.50241162D-10
  0.77882220D-10  0.10487645D-09  0.79489798D-10 -0.17407941D-09 -0.40550311D-09
 -0.98911752D-10  0.97919324D-09 -0.11023095D-08  0.99018811D-09 -0.13989458D-08
  0.31106933D-07 -0.79393947D-07 -0.14396934D-06 -0.83131657D-06 -0.39587191D-05
 -0.50693943D-05 -0.54241975D-05 -0.43161045D-05 -0.99337457D-06 -0.68865844D-05
 -0.88187139D-05 -0.94359293D-05 -0.75082917D-05 -0.17280735D-05 -0.39754735D-04
 -0.50908493D-04 -0.54471541D-04 -0.43343714D-04 -0.99757879D-05  0.31854114D-05
 -0.66192927D-06  0.55425422D-05 -0.11517416D-05  0.31995917D-04 -0.66487594D-05
  0.99753506D-06  0.17341896D-05  0.10011068D-04 -0.51765661D-06 -0.89989357D-06
 -0.51949006D-05  0.16767253D-06  0.28832838D-06  0.16643585D-05 -0.39477887D-07
  0.14113951D-06 -0.10166162D-06 -0.15906372D-06 -0.40847324D-06 -0.98246091D-06
MO    6     MO 0.0        OCC NO =    2.0000000  ORB. ENERGY =  -56.025365
 -0.57266410D-09 -0.10660674D-08 -0.17536708D-08 -0.23548856D-08 -0.22172135D-08
 -0.18220320D-09  0.15017641D-08  0.39904683D-08 -0.53794300D-11 -0.73002384D-07
 -0.68312245D-07 -0.52910474D-07  0.88662966D-05  0.82966691D-05  0.64260909D-05
 -0.15290512D-05 -0.14308152D-05 -0.11082217D-05 -0.18063017D-08  0.21999485D-07
 -0.31333566D-05  0.54107014D-06 -0.20247347D-07 -0.68311700D-07  0.86935600D-05
 -0.14993987D-05 -0.20858362D-07  0.20687764D-07 -0.20412388D-05  0.35156599D-06
 -0.31941013D-07 -0.21448109D-06  0.24642211D-06  0.54444687D-05 -0.90929544D-06
 -0.61392538D-06 -0.49725067D-06 -0.89696927D-06 -0.13223691D-05  0.69821449D-06
  0.13178323D-04 -0.14472582D-04  0.92834723D-05 -0.85157202D-06 -0.11034939D-04
 -0.23476962D-06 -0.42349090D-06 -0.62433722D-06  0.33632766D-06  0.61899883D-05
 -0.67950392D-05  0.54590669D-05 -0.49687420D-05  0.64606218D-05  0.72460683D-06
  0.13070873D-05  0.19269913D-05 -0.98607438D-06 -0.19354457D-04  0.21268980D-04
 -0.14760271D-04  0.12018230D-04  0.35025556D-05  0.41325670D-08  0.77067853D-08
  0.12969382D-07  0.20420408D-07  0.27086703D-07  0.17645596D-07  0.15402451D-07
  0.25956722D-07  0.55318381D-08 -0.12740651D-07 -0.17070827D-07  0.12730096D-07
 -0.94049176D-08  0.46678575D-08 -0.27578198D-08 -0.24683531D-08  0.58309364D-07
 -0.82127386D-05  0.14169320D-05 -0.60884581D+00 -0.81428784D+00 -0.94056528D+00
  0.86434011D+02  0.11559932D+03  0.13352614D+03 -0.14912590D+02 -0.19944525D+02
 -0.23037465D+02 -0.78286955D+00 -0.36925323D+00 -0.65257709D-01  0.11113905D+03
  0.52420550D+02  0.92642249D+01 -0.19174987D+02 -0.90441962D+01 -0.15983706D+01
 -0.69459885D-03 -0.14510500D-02 -0.92464349D-03  0.98610249D-01  0.20600150D+00
  0.13126904D+00 -0.17013374D-01 -0.35541747D-01 -0.22648044D-01  0.25838532D-03
 -0.36689784D-01  0.63301450D-02 -0.71458252D-04  0.10150627D-01 -0.17513056D-02
  0.70281295D-05 -0.99964972D-03  0.17247257D-03 -0.70015824D-06  0.99934416D-04
 -0.17242296D-04  0.48184309D-05  0.35918017D-05  0.16649656D-05  0.38930923D-06
  0.37774741D-05  0.28158415D-05  0.13052723D-05  0.30520424D-06 -0.85959050D-05
 -0.64076432D-05 -0.29702379D-05 -0.69451347D-06 -0.69285128D-03 -0.51647195D-03
 -0.23940855D-03 -0.55979510D-04  0.11951758D-03  0.89091955D-04  0.41298228D-04
  0.96565244D-05  0.65033338D-04  0.48477784D-04  0.22471687D-04  0.52544239D-05
 -0.57690782D-07  0.10222036D-06 -0.44529574D-07  0.82527514D-05 -0.14471346D-05
 -0.69135369D-06  0.66982879D-08 -0.41880577D-07  0.35182289D-07 -0.91949688D-06
  0.16656128D-06  0.59720048D-07 -0.11730869D-10 -0.21906298D-10 -0.37290605D-10
 -0.57806686D-10 -0.77842672D-10 -0.58999882D-10  0.13208968D-09  0.30769162D-09
  0.75053228D-10 -0.69810526D-09  0.68334392D-09 -0.64884069D-09  0.48474682D-09
  0.21495593D-07  0.83426893D-08 -0.83493803D-06  0.14382493D-06  0.30376484D-06
  0.38899040D-06  0.41621555D-06  0.33118813D-06  0.76224722D-07 -0.39947367D-04
 -0.51155170D-04 -0.54735484D-04 -0.43553736D-04 -0.10024126D-04  0.68902024D-05
  0.88233470D-05  0.94408867D-05  0.75122363D-05  0.17289814D-05 -0.24495904D-06
  0.50902548D-07  0.32150880D-04 -0.66809608D-05 -0.55454030D-05  0.11523361D-05
 -0.76074765D-07  0.10059593D-04 -0.17351408D-05  0.39500297D-07 -0.52199773D-05
  0.90037639D-06 -0.11229468D-07  0.16729681D-05 -0.28870261D-06 -0.16223317D-08
  0.50155901D-06 -0.49993668D-06 -0.33856742D-06 -0.29405673D-07  0.31489275D-06
MO    7     MO 0.0        OCC NO =    2.0000000  ORB. ENERGY =  -10.085564
  0.43814208D+00  0.81564215D+00  0.13417237D+01  0.18017097D+01  0.16963776D+01
  0.13940264D+00  0.37087850D+00  0.98549363D+00 -0.13285143D-02 -0.32436525D-02
 -0.30352595D-02 -0.23509258D-02  0.30771143D-04  0.28794208D-04  0.22302227D-04
  0.31726082D-03  0.29687796D-03  0.22994346D-03  0.79316777D-02  0.16627323D-02
 -0.15721012D-04 -0.16260876D-03 -0.15038618D-02  0.62193800D-04 -0.59345498D-06
 -0.60860710D-05 -0.69191006D-03 -0.75410974D-04  0.71740591D-06  0.73765535D-05
 -0.12248528D-02  0.62116831D-03  0.60368447D-03  0.34653559D-04  0.36101073D-03
 -0.33852000D-05  0.56466314D-04  0.10185717D-03  0.15016432D-03 -0.12861692D-02
  0.72984980D-03  0.30306147D-04  0.73076780D-03 -0.12137270D-02  0.18725969D-02
  0.56466784D-04  0.10185802D-03  0.15016557D-03 -0.12861990D-02  0.72986072D-03
  0.30298561D-04  0.34776943D-03 -0.10764683D-02 -0.20577089D-02  0.56466572D-04
  0.10185764D-03  0.15016501D-03 -0.12861110D-02  0.72982469D-03  0.30321379D-04
  0.58266901D-03  0.22745320D-02  0.22669615D-04 -0.18419600D-06 -0.34350539D-06
 -0.57806888D-06 -0.91017458D-06 -0.12073035D-05 -0.78649620D-06  0.27711653D-05
  0.46700599D-05  0.99527267D-06 -0.26012228D-04  0.46639088D-04 -0.56147017D-04
  0.41881902D-04 -0.49910178D-05  0.19928301D-04  0.11098272D-03 -0.18516345D-04
  0.17761812D-06  0.18118598D-05  0.14698431D-03  0.19658103D-03  0.22706625D-03
 -0.14378461D-05 -0.19230166D-05 -0.22212325D-05 -0.14393620D-04 -0.19250441D-04
 -0.22235744D-04  0.54537202D-03  0.25723364D-03  0.45460612D-04 -0.53326381D-05
 -0.25152260D-05 -0.44451306D-06 -0.53405086D-04 -0.25189383D-04 -0.44516913D-05
 -0.77560506D-04 -0.16202758D-03 -0.10324782D-03  0.75802530D-06  0.15835509D-05
  0.10090762D-05  0.75948965D-05  0.15866100D-04  0.10110255D-04  0.34663174D-03
 -0.33807674D-05 -0.33940229D-04 -0.29691640D-03  0.28894199D-05  0.29069900D-04
  0.10696781D-03 -0.10401174D-05 -0.10472495D-04 -0.26269777D-04  0.26110304D-06
  0.25740844D-05 -0.99983185D-03 -0.74530438D-03 -0.34548294D-03 -0.80782266D-04
  0.50718220D-03  0.37806869D-03  0.17525227D-03  0.40978218D-04  0.49264964D-03
  0.36723569D-03  0.17023067D-03  0.39804048D-04  0.28147755D-04  0.20982174D-04
  0.97262046D-05  0.22742219D-05  0.29460225D-03  0.21960528D-03  0.10179717D-03
  0.23802640D-04 -0.28242833D-05 -0.21053047D-05 -0.97590578D-06 -0.22819037D-06
  0.99165113D-04 -0.50302880D-04 -0.48862233D-04 -0.27919228D-05 -0.29219327D-04
  0.27992374D-06 -0.35438388D-04  0.17976073D-04  0.17462315D-04  0.99844725D-06
  0.10442444D-04 -0.99785031D-07 -0.11349792D-04 -0.21194673D-04 -0.36079221D-04
 -0.55928839D-04 -0.75313956D-04 -0.57083274D-04 -0.49636855D-04 -0.11562481D-03
 -0.28203613D-04  0.14433862D-03 -0.10028265D-03 -0.15266249D-04  0.22741557D-03
  0.73158865D-04  0.59378777D-05 -0.61885350D-07 -0.58284866D-06 -0.14855884D-02
 -0.19023915D-02 -0.20355385D-02 -0.16197044D-02 -0.37278365D-03  0.13996028D-04
  0.17922814D-04  0.19177219D-04  0.15259562D-04  0.35120700D-05  0.14527665D-03
  0.18603608D-03  0.19905662D-03  0.15839194D-03  0.36454753D-04  0.81886778D-03
 -0.17016093D-03 -0.77150569D-05  0.16031907D-05 -0.80077883D-04  0.16640204D-04
  0.23132437D-03 -0.21758655D-05 -0.22619507D-04  0.13428517D-03 -0.12702566D-05
 -0.13134353D-04  0.75999768D-04 -0.71322377D-06 -0.74312562D-05  0.22064325D-03