 Single Point Energy
GAUSSIAN             31 MOL ORBITALS    210 PRIMITIVES        6 NUCLEI   B3LYP
  C    1    (CENTRE  1)   2.38793899  0.01147306  0.16487970  CHARGE =  6.0
  H    2    (CENTRE  2)   1.89535860 -1.02212701 -1.52796786  CHARGE =  1.0
  H    3    (CENTRE  3)   1.66225972 -0.90921841  1.83892291  CHARGE =  1.0
  H    4    (CENTRE  4)   1.77183717  1.95710330  0.05697852  CHARGE =  1.0
  Br   5    (CENTRE  5)  -3.42411559 -0.01630624 -0.23649051  CHARGE = 35.0
  Cl   6    (CENTRE  6)   5.89335037  0.02800718  0.40705623  CHARGE = 17.0
CENTRE ASSIGNMENTS    1  1  1  1  1  1  1  1  1  1  1  1  1  1  1  1  1  1  1  1
CENTRE ASSIGNMENTS    1  1  1  1  1  1  1  1  1  1  1  1  1  1  1  1  2  2  2  2
CENTRE ASSIGNMENTS    2  2  2  2  2  3  3  3  3  3  3  3  3  3  4  4  4  4  4  4
CENTRE ASSIGNMENTS    4  4  4  5  5  5  5  5  5  5  5  5  5  5  5  5  5  5  5  5
CENTRE ASSIGNMENTS    5  5  5  5  5  5  5  5  5  5  5  5  5  5  5  5  5  5  5  5
CENTRE ASSIGNMENTS    5  5  5  5  5  5  5  5  5  5  5  5  5  5  5  5  5  5  5  5
CENTRE ASSIGNMENTS    5  5  5  5  5  5  5  5  5  5  5  5  5  5  5  5  5  5  5  5
CENTRE ASSIGNMENTS    5  5  5  5  5  5  5  5  5  5  5  5  5  5  5  5  5  6  6  6
CENTRE ASSIGNMENTS    6  6  6  6  6  6  6  6  6  6  6  6  6  6  6  6  6  6  6  6
CENTRE ASSIGNMENTS    6  6  6  6  6  6  6  6  6  6  6  6  6  6  6  6  6  6  6  6
CENTRE ASSIGNMENTS    6  6  6  6  6  6  6  6  6  6
TYPE ASSIGNMENTS      1  1  1  1  1  1  1  1  1  2  2  2  3  3  3  4  4  4  1  2
TYPE ASSIGNMENTS      3  4  1  2  3  4  1  2  3  4  5  6  7  8  9 10  1  1  1  1
TYPE ASSIGNMENTS      1  1  2  3  4  1  1  1  1  1  1  2  3  4  1  1  1  1  1  1
TYPE ASSIGNMENTS      2  3  4  1  1  1  1  1  1  1  1  1  1  1  1  1  1  1  1  2
TYPE ASSIGNMENTS      3  4  2  2  2  3  3  3  4  4  4  2  2  2  3  3  3  4  4  4
TYPE ASSIGNMENTS      2  2  2  3  3  3  4  4  4  2  3  4  2  3  4  2  3  4  2  3
TYPE ASSIGNMENTS      4  5  5  5  5  6  6  6  6  7  7  7  7  8  8  8  8  9  9  9
TYPE ASSIGNMENTS      9 10 10 10 10  5  6  7  8  9 10  5  6  7  8  9 10  1  1  1
TYPE ASSIGNMENTS      1  1  1  1  1  1  1  1  1  1  1  2  3  4  2  2  2  2  2  3
TYPE ASSIGNMENTS      3  3  3  3  4  4  4  4  4  2  2  3  3  4  4  2  3  4  2  3
TYPE ASSIGNMENTS      4  2  3  4  5  6  7  8  9 10
EXPONENTS  0.4563240D+04 0.6820240D+03 0.1549730D+03 0.4445530D+02 0.1302900D+02
EXPONENTS  0.1827730D+01 0.2096420D+02 0.4803310D+01 0.1459330D+01 0.2096420D+02
EXPONENTS  0.4803310D+01 0.1459330D+01 0.2096420D+02 0.4803310D+01 0.1459330D+01
EXPONENTS  0.2096420D+02 0.4803310D+01 0.1459330D+01 0.4834560D+00 0.4834560D+00
EXPONENTS  0.4834560D+00 0.4834560D+00 0.1455850D+00 0.1455850D+00 0.1455850D+00
EXPONENTS  0.1455850D+00 0.4380000D-01 0.4380000D-01 0.4380000D-01 0.4380000D-01
EXPONENTS  0.6260000D+00 0.6260000D+00 0.6260000D+00 0.6260000D+00 0.6260000D+00
EXPONENTS  0.6260000D+00 0.3386500D+02 0.5094790D+01 0.1158790D+01 0.3258400D+00
EXPONENTS  0.1027410D+00 0.3600000D-01 0.7500000D+00 0.7500000D+00 0.7500000D+00
EXPONENTS  0.3386500D+02 0.5094790D+01 0.1158790D+01 0.3258400D+00 0.1027410D+00
EXPONENTS  0.3600000D-01 0.7500000D+00 0.7500000D+00 0.7500000D+00 0.3386500D+02
EXPONENTS  0.5094790D+01 0.1158790D+01 0.3258400D+00 0.1027410D+00 0.3600000D-01
EXPONENTS  0.7500000D+00 0.7500000D+00 0.7500000D+00 0.4397000D+06 0.6603000D+05
EXPONENTS  0.1514000D+05 0.4317000D+04 0.1414000D+04 0.5239000D+03 0.5239000D+03
EXPONENTS  0.2077000D+03 0.8654000D+02 0.3052000D+02 0.1298000D+02 0.4412000D+01
EXPONENTS  0.1862000D+01 0.3932000D+00 0.1400000D+00 0.3500000D-01 0.3500000D-01
EXPONENTS  0.3500000D-01 0.3500000D-01 0.2957000D+04 0.7003000D+03 0.2246000D+03
EXPONENTS  0.2957000D+04 0.7003000D+03 0.2246000D+03 0.2957000D+04 0.7003000D+03
EXPONENTS  0.2246000D+03 0.8259000D+02 0.3319000D+02 0.1420000D+02 0.8259000D+02
EXPONENTS  0.3319000D+02 0.1420000D+02 0.8259000D+02 0.3319000D+02 0.1420000D+02
EXPONENTS  0.1420000D+02 0.7438000D+01 0.3526000D+01 0.1420000D+02 0.7438000D+01
EXPONENTS  0.3526000D+01 0.1420000D+02 0.7438000D+01 0.3526000D+01 0.1595000D+01
EXPONENTS  0.1595000D+01 0.1595000D+01 0.8462000D+00 0.8462000D+00 0.8462000D+00
EXPONENTS  0.3186000D+00 0.3186000D+00 0.3186000D+00 0.1096000D+00 0.1096000D+00
EXPONENTS  0.1096000D+00 0.1348000D+03 0.3639000D+02 0.1216000D+02 0.4341000D+01
EXPONENTS  0.1348000D+03 0.3639000D+02 0.1216000D+02 0.4341000D+01 0.1348000D+03
EXPONENTS  0.3639000D+02 0.1216000D+02 0.4341000D+01 0.1348000D+03 0.3639000D+02
EXPONENTS  0.1216000D+02 0.4341000D+01 0.1348000D+03 0.3639000D+02 0.1216000D+02
EXPONENTS  0.4341000D+01 0.1348000D+03 0.3639000D+02 0.1216000D+02 0.4341000D+01
EXPONENTS  0.1535000D+01 0.1535000D+01 0.1535000D+01 0.1535000D+01 0.1535000D+01
EXPONENTS  0.1535000D+01 0.4510000D+00 0.4510000D+00 0.4510000D+00 0.4510000D+00
EXPONENTS  0.4510000D+00 0.4510000D+00 0.1058190D+06 0.1587200D+05 0.3619650D+04
EXPONENTS  0.1030800D+04 0.3399080D+03 0.1245380D+03 0.1245380D+03 0.4951350D+02
EXPONENTS  0.2080560D+02 0.6583460D+01 0.2564680D+01 0.5597630D+00 0.1832730D+00
EXPONENTS  0.4830000D-01 0.4830000D-01 0.4830000D-01 0.4830000D-01 0.5897760D+03
EXPONENTS  0.1398490D+03 0.4514130D+02 0.1687330D+02 0.2771520D+01 0.5897760D+03
EXPONENTS  0.1398490D+03 0.4514130D+02 0.1687330D+02 0.2771520D+01 0.5897760D+03
EXPONENTS  0.1398490D+03 0.4514130D+02 0.1687330D+02 0.2771520D+01 0.6741100D+01
EXPONENTS  0.2771520D+01 0.6741100D+01 0.2771520D+01 0.6741100D+01 0.2771520D+01
EXPONENTS  0.1023870D+01 0.1023870D+01 0.1023870D+01 0.3813680D+00 0.3813680D+00
EXPONENTS  0.3813680D+00 0.1094370D+00 0.1094370D+00 0.1094370D+00 0.7500000D+00
EXPONENTS  0.7500000D+00 0.7500000D+00 0.7500000D+00 0.7500000D+00 0.7500000D+00
MO    1     MO 0.0        OCC NO =    2.0000000  ORB. ENERGY = -482.555434
 -0.62506274D-07 -0.11636123D-06 -0.19141313D-06 -0.25703571D-06 -0.24200881D-06
 -0.19887475D-07  0.16854279D-06  0.44784975D-06 -0.60373275D-09 -0.30820110D-05
 -0.28840029D-05 -0.22337718D-05 -0.14619767D-07 -0.13680500D-07 -0.10596076D-07
 -0.21286709D-06 -0.19919115D-06 -0.15428125D-06 -0.76761196D-06  0.29839958D-05
  0.14344698D-07  0.20604817D-06  0.18879949D-05 -0.32634965D-05 -0.15303938D-07
 -0.22547497D-06  0.29928462D-05 -0.12393435D-05 -0.58785217D-08 -0.85612256D-07
  0.70779269D-07 -0.35560244D-07 -0.35219026D-07  0.80318930D-09  0.14761850D-07
  0.90010048D-10  0.11621605D-06  0.20963718D-06  0.30906046D-06 -0.15873952D-05
 -0.19867904D-05 -0.16319087D-05  0.13250940D-05 -0.43879887D-06 -0.62398938D-06
  0.11619835D-06  0.20960524D-06  0.30901338D-06 -0.15872831D-05 -0.19866710D-05
 -0.16319647D-05  0.12244140D-05 -0.38994689D-06  0.82814607D-06  0.11627324D-06
  0.20974034D-06  0.30921255D-06 -0.15876541D-05 -0.19870659D-05 -0.16316746D-05
  0.12722762D-05  0.84722197D-06  0.59733333D-07  0.38584359D+01  0.71955608D+01
  0.12109067D+02  0.19065833D+02  0.25289924D+02  0.16475087D+02  0.96359567D+01
  0.16238835D+02  0.34607839D+01  0.81718927D-01 -0.11303221D-01  0.24793425D-02
 -0.63861073D-03  0.68697213D-04 -0.19700732D-04  0.18960394D-05  0.30096920D-06
  0.14205736D-08  0.20790471D-07  0.10719293D-03  0.14336289D-03  0.16559520D-03
  0.50576241D-06  0.67642114D-06  0.78131861D-06  0.74168535D-05  0.99195125D-05
  0.11457802D-04  0.31142615D-04  0.14688924D-04  0.25959570D-05  0.14733255D-06
  0.69491807D-07  0.12281209D-07  0.21539924D-05  0.10159657D-05  0.17955049D-06
 -0.24939746D-05 -0.52100314D-05 -0.33199556D-05 -0.11961523D-07 -0.24988190D-07
 -0.15923067D-07 -0.17224512D-06 -0.35982825D-06 -0.22929110D-06  0.88772526D-05
  0.42644969D-07  0.61300048D-06 -0.71422689D-05 -0.34318448D-07 -0.49318027D-06
  0.33452468D-05  0.16067769D-07  0.23099177D-06 -0.19326603D-05 -0.92697714D-08
 -0.13345589D-06 -0.56723185D-04 -0.42283149D-04 -0.19600188D-04 -0.45829981D-05
  0.28563326D-04  0.21291952D-04  0.98698014D-05  0.23077983D-05  0.28159859D-04
  0.20991196D-04  0.97303870D-05  0.22751998D-05 -0.82216691D-06 -0.61286766D-06
 -0.28409241D-06 -0.66427676D-07 -0.11777162D-04 -0.87790464D-05 -0.40694926D-05
 -0.95154580D-06 -0.57152341D-07 -0.42603054D-07 -0.19748479D-07 -0.46176720D-08
  0.44053634D-05 -0.22183558D-05 -0.21870076D-05  0.63862940D-07  0.91468884D-06
  0.44136983D-08 -0.10614670D-05  0.53451072D-06  0.52695626D-06 -0.15383942D-07
 -0.22039639D-06 -0.10628568D-08  0.57041383D-07  0.10651943D-06  0.18132567D-06
  0.28108517D-06  0.37851020D-06  0.28688709D-06 -0.20744582D-06 -0.48322731D-06
 -0.11787051D-06  0.77169462D-06 -0.73513014D-06  0.42504885D-06  0.14525502D-06
  0.48462852D-05 -0.42775118D-06 -0.20037234D-08 -0.29556184D-07  0.12957620D-05
  0.16593066D-05  0.17754403D-05  0.14127409D-05  0.32514988D-06  0.54638160D-08
  0.69967675D-08  0.74864662D-08  0.59570785D-08  0.13710535D-08  0.89711950D-07
  0.11488192D-06  0.12292242D-06  0.97810969D-07  0.22511718D-07 -0.10403602D-05
  0.21618710D-06 -0.43299201D-08  0.89975845D-09 -0.72046313D-07  0.14971241D-07
 -0.33235346D-06 -0.14246810D-08 -0.23002866D-07 -0.90335602D-07 -0.49133511D-09
 -0.62238260D-08 -0.10592083D-05 -0.49850259D-08 -0.73177661D-07  0.68556540D-06
 -0.34521910D-06 -0.34034631D-06  0.96804839D-08  0.14244604D-06  0.66857548D-09
MO    2     MO 0.0        OCC NO =    2.0000000  ORB. ENERGY = -101.408295
  0.18037240D-05  0.33577997D-05  0.55235489D-05  0.74171992D-05  0.69835726D-05
  0.57388665D-06 -0.42419569D-05 -0.11271674D-04  0.15195004D-07  0.51992418D-04
  0.48652094D-04  0.37682927D-04  0.24580029D-06  0.23000851D-06  0.17815048D-06
  0.35919800D-05  0.33612083D-05  0.26033858D-05 -0.53535034D-05 -0.27192674D-04
 -0.12880717D-06 -0.18790159D-05  0.58766889D-04  0.25634617D-04  0.12112118D-06
  0.17709248D-05 -0.12277385D-03 -0.27368289D-04 -0.12932981D-06 -0.18906661D-05
 -0.14009711D-04  0.70550010D-05  0.69547100D-05 -0.19851054D-06 -0.29099738D-05
 -0.12907232D-07  0.67598764D-06  0.12193853D-05  0.17976953D-05 -0.23404296D-04
  0.28418574D-05  0.39154338D-05 -0.11914905D-04 -0.88853959D-05 -0.15024942D-04
  0.67597634D-06  0.12193649D-05  0.17976652D-05 -0.23403876D-04  0.28419296D-05
  0.39155587D-05 -0.13909167D-04 -0.79182569D-05  0.13799444D-04  0.67600408D-06
  0.12194149D-05  0.17977390D-05 -0.23404159D-04  0.28419222D-05  0.39149445D-05
 -0.12971002D-04  0.16620457D-04 -0.14555188D-05  0.29177278D-07  0.54412432D-07
  0.91568093D-07  0.14417477D-06  0.19124101D-06  0.12458370D-06 -0.99843695D-06
 -0.16825991D-05 -0.35859174D-06  0.60804417D-05 -0.85891280D-05  0.81833992D-05
 -0.57157376D-05  0.40220062D-05 -0.61367358D-05 -0.13742674D-04 -0.21176928D-05
 -0.10239265D-07 -0.14618500D-06 -0.11212787D-04 -0.14996303D-04 -0.17321887D-04
 -0.54804280D-07 -0.73296815D-07 -0.84663476D-07 -0.77380069D-06 -0.10349032D-05
 -0.11953931D-05  0.35339693D-04  0.16668544D-04  0.29458131D-05  0.17278788D-06
  0.81498232D-07  0.14403091D-07  0.24387811D-05  0.11502910D-05  0.20328964D-06
 -0.42819007D-05 -0.89450940D-05 -0.57000261D-05 -0.20944218D-07 -0.43753466D-07
 -0.27880747D-07 -0.29548978D-06 -0.61729220D-06 -0.39335323D-06  0.14701003D-04
  0.72064490D-07  0.10144474D-05 -0.10107553D-04 -0.49736240D-07 -0.69740870D-06
  0.24136697D-05  0.12119923D-07  0.16645299D-06 -0.17242682D-05 -0.85032534D-08
 -0.11897138D-06  0.14862343D-03  0.11078832D-03  0.51355494D-04  0.12008157D-04
 -0.74842690D-04 -0.55789966D-04 -0.25861221D-04 -0.60469789D-05 -0.73780740D-04
 -0.54998357D-04 -0.25494273D-04 -0.59611777D-05  0.20967402D-05  0.15629725D-05
  0.72450980D-06  0.16940791D-06  0.30880426D-04  0.23019187D-04  0.10670454D-04
  0.24950103D-05  0.14517079D-06  0.10821462D-06  0.50162464D-07  0.11729197D-07
 -0.11539504D-04  0.58109752D-05  0.57285293D-05 -0.16280787D-06 -0.23976378D-05
 -0.11271866D-07  0.27677083D-05 -0.13937380D-05 -0.13739703D-05  0.39050274D-07
  0.57507254D-06  0.27040302D-08  0.12702087D+01  0.23719956D+01  0.40377955D+01
  0.62592597D+01  0.84287395D+01  0.63884580D+01  0.23318112D+01  0.54317549D+01
  0.13249329D+01  0.43928660D-01 -0.57170126D-02  0.69101441D-03 -0.22961456D-03
  0.15448526D-03 -0.23624970D-04 -0.11125847D-06 -0.16322483D-05 -0.89843552D-03
 -0.11505044D-02 -0.12310274D-02 -0.97954451D-03 -0.22544742D-03 -0.42320507D-05
 -0.54194130D-05 -0.57987138D-05 -0.46141120D-05 -0.10619626D-05 -0.62075973D-04
 -0.79492273D-04 -0.85055880D-04 -0.67680070D-04 -0.15576931D-04  0.18285972D-03
 -0.37998295D-04  0.86106519D-06 -0.17892956D-06  0.12634470D-04 -0.26254460D-05
  0.65728966D-04  0.30950377D-06  0.45415001D-05 -0.48382774D-05 -0.22705484D-07
 -0.33436222D-06  0.19848031D-04  0.93535623D-07  0.13712761D-05 -0.15978078D-04
  0.80461168D-05  0.79319611D-05 -0.22676062D-06 -0.33195261D-05 -0.15681993D-07
MO    3     MO 0.0        OCC NO =    2.0000000  ORB. ENERGY =  -62.208494
 -0.60262483D-06 -0.11218421D-05 -0.18454196D-05 -0.24780889D-05 -0.23332141D-05
 -0.19173573D-06  0.20449340D-05  0.54337725D-05 -0.73251049D-08 -0.42448824D-04
 -0.39721640D-04 -0.30765946D-04 -0.20137476D-06 -0.18843716D-06 -0.14595186D-06
 -0.29318352D-05 -0.27434754D-05 -0.21249277D-05 -0.10876526D-04  0.41978541D-04
  0.20175198D-06  0.28986783D-05  0.26678371D-04 -0.46193659D-04 -0.21662133D-06
 -0.31915190D-05  0.43259332D-04 -0.17604473D-04 -0.83501806D-07 -0.12160951D-05
  0.94528900D-06 -0.47485399D-06 -0.47043500D-06  0.10646793D-07  0.19717739D-06
  0.12249260D-08  0.15911416D-05  0.28701924D-05  0.42314201D-05 -0.22268991D-04
 -0.28389899D-04 -0.23357808D-04  0.18556692D-04 -0.61178086D-05 -0.86947552D-05
  0.15908958D-05  0.28697490D-05  0.42307664D-05 -0.22267424D-04 -0.28388201D-04
 -0.23358604D-04  0.17152892D-04 -0.54366656D-05  0.11552488D-04  0.15919334D-05
  0.28716208D-05  0.42335259D-05 -0.22272589D-04 -0.28393835D-04 -0.23354467D-04
  0.17820285D-04  0.11813265D-04  0.83844633D-06 -0.12742140D+01 -0.23762697D+01
 -0.39989112D+01 -0.62963212D+01 -0.83517717D+01 -0.54407504D+01 -0.53839914D+01
 -0.90732812D+01 -0.19336773D+01  0.58198827D+01  0.24292240D+01  0.10307352D+00
 -0.10911999D-01  0.99696924D-03 -0.28308543D-03  0.27183354D-04  0.42981650D-05
  0.20287592D-07  0.29690991D-06  0.21940474D-02  0.29343819D-02  0.33894375D-02
  0.98307415D-05  0.13147915D-04  0.15186857D-04  0.15257645D-03  0.20406011D-03
  0.23570517D-03  0.32833596D-02  0.15486503D-02  0.27369123D-03  0.14791359D-04
  0.69765866D-05  0.12329643D-05  0.22821021D-03  0.10763908D-03  0.19022934D-04
 -0.21873364D-04 -0.45694497D-04 -0.29117618D-04 -0.10775957D-06 -0.22511485D-06
 -0.14344853D-06 -0.15064171D-05 -0.31469768D-05 -0.20053283D-05  0.11369100D-03
  0.54811553D-06  0.78473139D-05 -0.96629019D-04 -0.46481010D-06 -0.66713426D-05
  0.46892018D-04  0.22526542D-06  0.32378545D-05 -0.27392342D-04 -0.13138601D-06
 -0.18915166D-05 -0.58568678D-03 -0.43658834D-03 -0.20237882D-03 -0.47321062D-04
  0.29490748D-03  0.21983280D-03  0.10190264D-03  0.23827301D-04  0.29077930D-03
  0.21675554D-03  0.10047618D-03  0.23493761D-04 -0.84702820D-05 -0.63140000D-05
 -0.29268300D-05 -0.68436365D-06 -0.12152020D-03 -0.90584771D-04 -0.41990217D-04
 -0.98183282D-05 -0.67195501D-06 -0.50089524D-06 -0.23218803D-06 -0.54291178D-07
  0.58264634D-04 -0.29339284D-04 -0.28925350D-04  0.84455186D-06  0.12095655D-04
  0.58915429D-07 -0.14664074D-04  0.73842076D-05  0.72798663D-05 -0.21251709D-06
 -0.30446861D-05 -0.14641074D-07  0.17150548D-06  0.32027039D-06  0.54518918D-06
  0.84513459D-06  0.11380610D-05  0.86257914D-06 -0.17764805D-05 -0.41381596D-05
 -0.10093945D-05  0.94008617D-05 -0.96720831D-05  0.59270435D-05  0.19803870D-05
  0.68716209D-04 -0.60558407D-05 -0.28366566D-07 -0.41843855D-06  0.15283414D-04
  0.19571393D-04  0.20941181D-04  0.16663170D-04  0.38351178D-05  0.64633146D-07
  0.82766897D-07  0.88559693D-07  0.70468100D-07  0.16218611D-07  0.10580699D-05
  0.13549265D-05  0.14497568D-05  0.11535903D-05  0.26550500D-06 -0.11394405D-04
  0.23677602D-05 -0.47663805D-07  0.99045503D-08 -0.78899107D-06  0.16395254D-06
 -0.42796210D-05 -0.18358949D-07 -0.29619142D-06 -0.13680040D-05 -0.73436781D-08
 -0.94279862D-07 -0.15016708D-04 -0.70676569D-07 -0.10374596D-05  0.97153013D-05
 -0.48921801D-05 -0.48231212D-05  0.13719342D-06  0.20186318D-05  0.94744656D-08
MO    4     MO 0.0        OCC NO =    2.0000000  ORB. ENERGY =  -56.026293
  0.34344998D-05  0.63936403D-05  0.10517478D-04  0.14123208D-04  0.13297533D-04
  0.10927468D-05 -0.97829100D-05 -0.25995024D-04  0.35043108D-07 -0.25920707D-04
 -0.24255396D-04 -0.18786741D-04 -0.12827444D-06 -0.12003327D-06 -0.92970406D-07
 -0.17864345D-05 -0.16716626D-05 -0.12947673D-05  0.24059851D-04 -0.44553984D-05
 -0.12977145D-07 -0.31140732D-06  0.42674409D-04 -0.90158883D-05 -0.44110637D-07
 -0.62048552D-06  0.10276618D-03  0.46859118D-04  0.22227750D-06  0.32363718D-05
 -0.39254344D-04  0.19770649D-04  0.19483695D-04 -0.55970076D-06 -0.81533111D-05
 -0.37121356D-07  0.10063006D-04  0.18152227D-04  0.26761167D-04 -0.66522552D-04
  0.12503228D-04 -0.50127797D-05  0.34190763D-04 -0.29410827D-04 -0.45215151D-04
  0.10063424D-04  0.18152981D-04  0.26762279D-04 -0.66523510D-04  0.12497365D-04
 -0.50071111D-05  0.27513356D-04 -0.26174745D-04  0.51349372D-04  0.10062827D-04
  0.18151905D-04  0.26760693D-04 -0.66520601D-04  0.12498089D-04 -0.50065133D-05
  0.30644271D-04  0.56039044D-04  0.23946281D-06  0.34542766D-04  0.64418480D-04
  0.10840680D-03  0.17068746D-03  0.22640883D-03  0.14749372D-03  0.15650918D-03
  0.26375447D-03  0.56210760D-04 -0.21412007D-03  0.69894408D-05 -0.77560479D-04
  0.53726766D-04 -0.26978368D-04  0.18942399D-04  0.39843925D-04 -0.17532729D-05
 -0.88228091D-08 -0.12245690D-06  0.87502645D+02  0.11702855D+03  0.13517700D+03
  0.42466064D+00  0.56795331D+00  0.65602989D+00  0.60563800D+01  0.80999763D+01
  0.93560976D+01  0.11251267D+03  0.53068440D+02  0.93787258D+01  0.54603726D+00
  0.25754740D+00  0.45516063D-01  0.77874158D+01  0.36730621D+01  0.64913614D+00
  0.99903676D-01  0.20870353D+00  0.13299084D+00  0.48484070D-03  0.10128553D-02
  0.64541540D-03  0.69146883D-02  0.14445112D-01  0.92047684D-02 -0.37400674D-01
 -0.18149524D-03 -0.25885927D-02  0.10468650D-01  0.50793674D-04  0.72454008D-03
 -0.10758606D-02 -0.52168831D-05 -0.74453668D-04  0.12256473D-03  0.59337978D-06
  0.84797245D-05  0.35110553D-03  0.26172450D-03  0.12132137D-03  0.28367870D-04
 -0.17682416D-03 -0.13180998D-03 -0.61100003D-04 -0.14286658D-04 -0.17428137D-03
 -0.12991451D-03 -0.60221365D-04 -0.14081212D-04  0.49586199D-05  0.36963027D-05
  0.17134067D-05  0.40063592D-06  0.73265933D-04  0.54614605D-04  0.25316387D-04
  0.59195835D-05  0.44576119D-06  0.33228364D-06  0.15402878D-06  0.36015655D-07
 -0.33124480D-05  0.16687425D-05  0.16437055D-05 -0.50073870D-07 -0.69268028D-06
 -0.78009452D-08  0.89772372D-07 -0.45256084D-07 -0.44516289D-07  0.22472716D-08
  0.18491948D-07  0.73120124D-09 -0.25955080D-06 -0.48468677D-06 -0.82507154D-06
 -0.12789992D-05 -0.17223044D-05 -0.13053992D-05  0.28812889D-05  0.67117163D-05
  0.16371456D-05 -0.15851111D-04  0.17032042D-04 -0.15317791D-04  0.19731232D-04
 -0.16672212D-03  0.17587821D-04  0.81901691D-07  0.12153892D-05 -0.94615427D-04
 -0.12116114D-03 -0.12964112D-03 -0.10315712D-03 -0.23742164D-04 -0.45152515D-06
 -0.57820698D-06 -0.61867527D-06 -0.49228796D-06 -0.11330271D-06 -0.65434360D-05
 -0.83792904D-05 -0.89657509D-05 -0.71341646D-05 -0.16419662D-05  0.72319725D-04
 -0.15028057D-04  0.34529663D-06 -0.71752724D-07  0.50017779D-05 -0.10393707D-05
  0.27571301D-04  0.13139964D-06  0.19065177D-05 -0.15087554D-04 -0.71900827D-07
 -0.10432276D-05  0.11160404D-04  0.53367892D-07  0.77109780D-06  0.73470356D-06
 -0.37002446D-06 -0.36467909D-06  0.10606637D-07  0.15256528D-06  0.44607336D-09
MO    5     MO 0.0        OCC NO =    2.0000000  ORB. ENERGY =  -56.026224
 -0.44619390D-09 -0.83063137D-09 -0.13663808D-08 -0.18348201D-08 -0.17275523D-08
 -0.14196447D-09  0.13505850D-08  0.35887572D-08 -0.48378954D-11 -0.63733382D-06
 -0.59638743D-06 -0.46192512D-06 -0.74520585D-05 -0.69732907D-05 -0.54010832D-05
  0.97484284D-05  0.91221272D-05  0.70654401D-05 -0.39940349D-08  0.36925427D-06
  0.42913719D-05 -0.56165554D-05  0.84005882D-10 -0.49662893D-06 -0.57925427D-05
  0.75756469D-05 -0.15507477D-07  0.11480952D-06  0.14203409D-05 -0.18578605D-05
  0.19623789D-06  0.11444377D-05 -0.13406756D-05  0.21225665D-05 -0.28466904D-05
  0.25675153D-05 -0.32608398D-06 -0.58820898D-06 -0.86717508D-06  0.46543045D-06
  0.71843200D-05 -0.81134392D-05 -0.64382966D-05  0.94869169D-05 -0.26838632D-05
  0.90596816D-06  0.16342373D-05  0.24092965D-05 -0.12811755D-05 -0.20036264D-04
  0.22619376D-04  0.17673801D-04 -0.26165488D-05  0.96942008D-05 -0.58224993D-06
 -0.10502958D-05 -0.15484129D-05  0.82956216D-06  0.12842309D-04 -0.14502365D-04
 -0.11157095D-04 -0.59163933D-05 -0.82615015D-05  0.17236428D-07  0.32144052D-07
  0.54093696D-07  0.85171004D-07  0.11297530D-06  0.73597607D-07  0.71432112D-07
  0.12037977D-06  0.25655066D-07 -0.76038936D-07 -0.38331692D-07  0.71600822D-08
 -0.60762816D-08  0.32307135D-08 -0.24358399D-08 -0.63586226D-08  0.43689837D-06
  0.51125844D-05 -0.66855237D-05 -0.45576528D+01 -0.60955355D+01 -0.70408138D+01
 -0.53211149D+02 -0.71166116D+02 -0.82202355D+02  0.69580071D+02  0.93058382D+02
  0.10748961D+03 -0.58603480D+01 -0.27641290D+01 -0.48850141D+00 -0.68420274D+02
 -0.32271542D+02 -0.57033133D+01  0.89467858D+02  0.42198979D+02  0.74577782D+01
 -0.51998478D-02 -0.10862729D-01 -0.69219887D-02 -0.60708757D-01 -0.12682348D+00
 -0.80814930D-01  0.79384111D-01  0.16583718D+00  0.10567539D+00  0.19349506D-02
  0.22590452D-01 -0.29539777D-01 -0.53544685D-03 -0.62511666D-02  0.81741652D-02
  0.52779056D-04  0.61612543D-03 -0.80565956D-03 -0.52929985D-05 -0.61766532D-04
  0.80767423D-04 -0.31336432D-04 -0.23359108D-04 -0.10828023D-04 -0.25318537D-05
 -0.98282338D-06 -0.73262577D-06 -0.33960581D-06 -0.79408052D-07  0.32319255D-04
  0.24091734D-04  0.11167629D-04  0.26112618D-05 -0.36451643D-03 -0.27172139D-03
 -0.12595539D-03 -0.29451416D-04  0.47431310D-03  0.35356709D-03  0.16389464D-03
  0.38322531D-04 -0.21691854D-04 -0.16169753D-04 -0.74954258D-05 -0.17526118D-05
  0.48182101D-06  0.19008620D-07 -0.50082963D-06  0.55807887D-05 -0.72653119D-05
  0.34424719D-06 -0.72819079D-07  0.20711422D-08  0.70747937D-07 -0.84305512D-06
  0.10971544D-05 -0.41285415D-07  0.46495838D-10  0.86826616D-10  0.14780302D-09
  0.22911945D-09  0.30853300D-09  0.23384874D-09 -0.51644259D-09 -0.12030089D-08
 -0.29344218D-09  0.28374291D-08 -0.30396378D-08  0.27824382D-08 -0.34594083D-08
  0.25079900D-07  0.37609618D-07  0.47162274D-06 -0.61699117D-06  0.21558890D-05
  0.27607544D-05  0.29539776D-05  0.23505184D-05  0.54098440D-06  0.24936750D-04
  0.31933111D-04  0.34168086D-04  0.27187991D-04  0.62574617D-05 -0.32607121D-04
 -0.41755514D-04 -0.44677952D-04 -0.35550828D-04 -0.81822134D-05 -0.17345079D-05
  0.36043117D-06 -0.20068854D-04  0.41703128D-05  0.26241946D-04 -0.54530828D-05
 -0.54388051D-06 -0.62848194D-05  0.82179474D-05  0.28350028D-06  0.32747698D-05
 -0.42820683D-05 -0.89538150D-07 -0.10224126D-05  0.13367737D-05 -0.17231415D-07
 -0.36754816D-06  0.38477958D-06 -0.16206009D-06  0.23930331D-06 -0.79527434D-06
MO    6     MO 0.0        OCC NO =    2.0000000  ORB. ENERGY =  -56.026224
 -0.37499267D-09 -0.69808366D-09 -0.11483410D-08 -0.15420293D-08 -0.14518787D-08
 -0.11931054D-09  0.10003125D-08  0.26580178D-08 -0.35831936D-11 -0.55479372D-06
 -0.51915023D-06 -0.40210192D-06  0.97646823D-05  0.91373367D-05  0.70772205D-05
  0.74341241D-05  0.69565085D-05  0.53880847D-05 -0.19177684D-08  0.32217700D-06
 -0.56226948D-05 -0.42827861D-05 -0.95973568D-08 -0.43242575D-06  0.75903844D-05
  0.57773326D-05 -0.14026866D-07  0.10115214D-06 -0.18612815D-05 -0.14168435D-05
  0.18431192D-06 -0.12302426D-05  0.10459307D-05 -0.31578600D-05 -0.24568397D-05
  0.20488773D-05 -0.86074023D-06 -0.15526526D-05 -0.22890192D-05  0.12291813D-05
  0.18982580D-04 -0.21431537D-04 -0.17912341D-04  0.13227503D-05  0.76720363D-05
  0.14640374D-06  0.26409146D-06  0.38934043D-06 -0.19880817D-06 -0.32683303D-05
  0.36905765D-05  0.32462061D-05 -0.92739508D-05 -0.31368037D-05  0.70979927D-06
  0.12803766D-05  0.18876126D-05 -0.99881329D-06 -0.15713491D-04  0.17742699D-04
  0.14720821D-04  0.67014227D-05 -0.54900582D-05 -0.33677946D-08 -0.62805685D-08
 -0.10569270D-07 -0.16641409D-07 -0.22074041D-07 -0.14380104D-07 -0.15758345D-07
 -0.26556487D-07 -0.56596589D-08  0.23249166D-07 -0.37403282D-08  0.10725833D-07
 -0.74471861D-08  0.34457981D-08 -0.22041017D-08 -0.41941702D-08  0.38466484D-06
 -0.66995141D-05 -0.50983281D-05 -0.40109767D+01 -0.53643953D+01 -0.61962904D+01
  0.69727887D+02  0.93256075D+02  0.10771796D+03  0.53061462D+02  0.70965921D+02
  0.81971114D+02 -0.51574177D+01 -0.24325804D+01 -0.42990721D+00  0.89657923D+02
  0.42288626D+02  0.74736214D+01  0.68227803D+02  0.32180759D+02  0.56872695D+01
 -0.45761463D-02 -0.95597871D-02 -0.60917232D-02  0.79552759D-01  0.16618949D+00
  0.10589989D+00  0.60537986D-01  0.12646673D+00  0.80587601D-01  0.17028746D-02
 -0.29602546D-01 -0.22526920D-01 -0.47123351D-03  0.81915372D-02  0.62335891D-02
  0.46452093D-04 -0.80737134D-03 -0.61439274D-03 -0.46586622D-05  0.80938804D-04
  0.61592810D-04 -0.27421635D-04 -0.20440902D-04 -0.94753002D-05 -0.22155543D-05
  0.13732403D-05  0.10236542D-05  0.47451088D-06  0.11095212D-06  0.26048395D-04
  0.19417248D-04  0.90007893D-05  0.21046022D-05  0.47728466D-03  0.35578217D-03
  0.16492144D-03  0.38562620D-04  0.36140659D-03  0.26940322D-03  0.12488081D-03
  0.29200153D-04  0.36282390D-04  0.27045972D-04  0.12537055D-04  0.29314666D-05
  0.41855266D-06 -0.25077539D-07 -0.39347512D-06 -0.73136241D-05 -0.55411570D-05
 -0.54594582D-06 -0.63112175D-07 -0.12187888D-08  0.64330964D-07  0.11030491D-05
  0.83549820D-06  0.92022067D-07  0.24946466D-10  0.46585186D-10  0.79300928D-10
  0.12292973D-09  0.16553757D-09  0.12546714D-09 -0.27694149D-09 -0.64511152D-09
 -0.15735788D-09  0.15220183D-08 -0.16318372D-08  0.14076859D-08 -0.19485976D-08
  0.19629874D-07  0.33366425D-07 -0.61799273D-06 -0.47048112D-06  0.18790706D-05
  0.24062707D-05  0.25746839D-05  0.20487095D-05  0.47152145D-06 -0.32676230D-04
 -0.41844012D-04 -0.44772644D-04 -0.35626175D-04 -0.81995551D-05 -0.24866567D-04
 -0.31843238D-04 -0.34071923D-04 -0.27111472D-04 -0.62398505D-05 -0.15118506D-05
  0.31416293D-06  0.26297508D-04 -0.54646285D-05  0.20012404D-04 -0.41585825D-05
 -0.47397060D-06  0.82354057D-05  0.62671083D-05  0.24706467D-06 -0.42911363D-05
 -0.32655528D-05 -0.77839462D-07  0.13396899D-05  0.10194196D-05 -0.18714137D-07
  0.39300095D-06 -0.37428681D-06  0.33431184D-06  0.27523426D-06 -0.71063343D-06
MO    7     MO 0.0        OCC NO =    2.0000000  ORB. ENERGY =  -10.081673
  0.43813850D+00  0.81563550D+00  0.13417127D+01  0.18016950D+01  0.16963638D+01
  0.13940150D+00  0.37088002D+00  0.98549766D+00 -0.13285197D-02  0.32000687D-02
  0.29944758D-02  0.23193373D-02  0.15203315D-04  0.14226557D-04  0.11019018D-04
  0.22102194D-03  0.20682208D-03  0.16019170D-03  0.79418394D-02 -0.16457213D-02
 -0.77973890D-05 -0.11368199D-03 -0.15046443D-02 -0.63865309D-04 -0.30248314D-06
 -0.44143103D-05 -0.67821156D-03  0.85072305D-04  0.40521080D-06  0.58758300D-05
 -0.12492306D-02  0.62908256D-03  0.62014808D-03 -0.17684363D-04 -0.25948871D-03
 -0.12128955D-05  0.56422959D-04  0.10177897D-03  0.15004903D-03 -0.12904774D-02
  0.73371811D-03  0.26397870D-04 -0.40999689D-03 -0.12119560D-02 -0.19746789D-02
  0.56423764D-04  0.10178042D-03  0.15005117D-03 -0.12904668D-02  0.73371870D-03
  0.26393504D-04 -0.68349419D-03 -0.10794678D-02  0.19758069D-02  0.56423223D-04
  0.10177944D-03  0.15004973D-03 -0.12904477D-02  0.73370526D-03  0.26402579D-04
 -0.55492784D-03  0.22836343D-02 -0.11499914D-03 -0.28867154D-06 -0.53834084D-06
 -0.90594819D-06 -0.14264235D-05 -0.18920831D-05 -0.12325950D-05  0.46149403D-05
  0.77772507D-05  0.16574702D-05 -0.42915074D-04  0.77143606D-04 -0.94832646D-04
  0.74554323D-04 -0.23714575D-04  0.30173367D-04  0.12737478D-03  0.20638274D-04
  0.98797431D-07  0.14252379D-05 -0.11226092D-03 -0.15014098D-03 -0.17342441D-03
 -0.55277694D-06 -0.73929973D-06 -0.85394822D-06 -0.77492213D-05 -0.10364031D-04
 -0.11971255D-04 -0.43940341D-03 -0.20725181D-03 -0.36627379D-04 -0.21588506D-05
 -0.10182572D-05 -0.17995545D-06 -0.30331994D-04 -0.14306581D-04 -0.25283861D-05
  0.64005361D-04  0.13371024D-03  0.85203338D-04  0.31406742D-06  0.65610178D-06
  0.41808362D-06  0.44183553D-05  0.92301542D-05  0.58816732D-05 -0.30265382D-03
 -0.14792695D-05 -0.20893742D-04  0.27410875D-03  0.13345756D-05  0.18924326D-04
 -0.11325988D-03 -0.54898155D-06 -0.78200376D-05  0.28852362D-04  0.14208664D-06
  0.19916226D-05 -0.71164151D-03 -0.53047874D-03 -0.24590135D-03 -0.57497682D-04
  0.35841004D-03  0.26716950D-03  0.12384538D-03  0.28958045D-04  0.35323147D-03
  0.26330924D-03  0.12205597D-03  0.28539638D-04 -0.10026974D-04 -0.74744042D-05
 -0.34647308D-05 -0.81013787D-06 -0.14780987D-03 -0.11018187D-03 -0.51074376D-04
 -0.11942424D-04 -0.67992379D-06 -0.50683541D-06 -0.23494157D-06 -0.54935022D-07
  0.73404862D-04 -0.36969224D-04 -0.36435638D-04  0.10344868D-05  0.15246484D-04
  0.70220500D-07 -0.31152683D-04  0.15689113D-04  0.15463569D-04 -0.43968110D-06
 -0.64707166D-05 -0.29954283D-07 -0.11180783D-04 -0.20879064D-04 -0.35541967D-04
 -0.55096005D-04 -0.74192460D-04 -0.56233249D-04 -0.48635743D-04 -0.11329281D-03
 -0.27634782D-04  0.14026005D-03 -0.96226785D-04 -0.19227460D-04  0.23026786D-03
  0.44341623D-04 -0.27716049D-05 -0.15685382D-07 -0.19076021D-06  0.14579963D-02
  0.18670580D-02  0.19977320D-02  0.15896213D-02  0.36585986D-03  0.68761676D-05
  0.88053746D-05  0.94216564D-05  0.74969346D-05  0.17254596D-05  0.10072716D-03
  0.12898761D-03  0.13801536D-03  0.10982062D-03  0.25275803D-04 -0.80284354D-03
  0.16683108D-03 -0.37863950D-05  0.78681381D-06 -0.55465500D-04  0.11525744D-04
 -0.22252876D-03 -0.10489979D-05 -0.15372867D-04 -0.13764266D-03 -0.65011009D-06
 -0.95098424D-05 -0.74495140D-04 -0.34991098D-06 -0.51473205D-05  0.22246851D-03