 Single Point Energy
GAUSSIAN             31 MOL ORBITALS    210 PRIMITIVES        6 NUCLEI   B3LYP
  C    1    (CENTRE  1)  -2.35426562  0.00259207  0.07602393  CHARGE =  6.0
  H    2    (CENTRE  2)  -1.69266136 -1.02954024  1.71057278  CHARGE =  1.0
  H    3    (CENTRE  3)  -1.80131017 -0.91556155 -1.66351910  CHARGE =  1.0
  H    4    (CENTRE  4)  -1.74091222  1.95103682  0.12208825  CHARGE =  1.0
  Br   5    (CENTRE  5)   3.40333685 -0.00355405 -0.10978959  CHARGE = 35.0
  Cl   6    (CENTRE  6)  -5.86801838  0.00605320  0.18925590  CHARGE = 17.0
CENTRE ASSIGNMENTS    1  1  1  1  1  1  1  1  1  1  1  1  1  1  1  1  1  1  1  1
CENTRE ASSIGNMENTS    1  1  1  1  1  1  1  1  1  1  1  1  1  1  1  1  2  2  2  2
CENTRE ASSIGNMENTS    2  2  2  2  2  3  3  3  3  3  3  3  3  3  4  4  4  4  4  4
CENTRE ASSIGNMENTS    4  4  4  5  5  5  5  5  5  5  5  5  5  5  5  5  5  5  5  5
CENTRE ASSIGNMENTS    5  5  5  5  5  5  5  5  5  5  5  5  5  5  5  5  5  5  5  5
CENTRE ASSIGNMENTS    5  5  5  5  5  5  5  5  5  5  5  5  5  5  5  5  5  5  5  5
CENTRE ASSIGNMENTS    5  5  5  5  5  5  5  5  5  5  5  5  5  5  5  5  5  5  5  5
CENTRE ASSIGNMENTS    5  5  5  5  5  5  5  5  5  5  5  5  5  5  5  5  5  6  6  6
CENTRE ASSIGNMENTS    6  6  6  6  6  6  6  6  6  6  6  6  6  6  6  6  6  6  6  6
CENTRE ASSIGNMENTS    6  6  6  6  6  6  6  6  6  6  6  6  6  6  6  6  6  6  6  6
CENTRE ASSIGNMENTS    6  6  6  6  6  6  6  6  6  6
TYPE ASSIGNMENTS      1  1  1  1  1  1  1  1  1  2  2  2  3  3  3  4  4  4  1  2
TYPE ASSIGNMENTS      3  4  1  2  3  4  1  2  3  4  5  6  7  8  9 10  1  1  1  1
TYPE ASSIGNMENTS      1  1  2  3  4  1  1  1  1  1  1  2  3  4  1  1  1  1  1  1
TYPE ASSIGNMENTS      2  3  4  1  1  1  1  1  1  1  1  1  1  1  1  1  1  1  1  2
TYPE ASSIGNMENTS      3  4  2  2  2  3  3  3  4  4  4  2  2  2  3  3  3  4  4  4
TYPE ASSIGNMENTS      2  2  2  3  3  3  4  4  4  2  3  4  2  3  4  2  3  4  2  3
TYPE ASSIGNMENTS      4  5  5  5  5  6  6  6  6  7  7  7  7  8  8  8  8  9  9  9
TYPE ASSIGNMENTS      9 10 10 10 10  5  6  7  8  9 10  5  6  7  8  9 10  1  1  1
TYPE ASSIGNMENTS      1  1  1  1  1  1  1  1  1  1  1  2  3  4  2  2  2  2  2  3
TYPE ASSIGNMENTS      3  3  3  3  4  4  4  4  4  2  2  3  3  4  4  2  3  4  2  3
TYPE ASSIGNMENTS      4  2  3  4  5  6  7  8  9 10
EXPONENTS  0.4563240D+04 0.6820240D+03 0.1549730D+03 0.4445530D+02 0.1302900D+02
EXPONENTS  0.1827730D+01 0.2096420D+02 0.4803310D+01 0.1459330D+01 0.2096420D+02
EXPONENTS  0.4803310D+01 0.1459330D+01 0.2096420D+02 0.4803310D+01 0.1459330D+01
EXPONENTS  0.2096420D+02 0.4803310D+01 0.1459330D+01 0.4834560D+00 0.4834560D+00
EXPONENTS  0.4834560D+00 0.4834560D+00 0.1455850D+00 0.1455850D+00 0.1455850D+00
EXPONENTS  0.1455850D+00 0.4380000D-01 0.4380000D-01 0.4380000D-01 0.4380000D-01
EXPONENTS  0.6260000D+00 0.6260000D+00 0.6260000D+00 0.6260000D+00 0.6260000D+00
EXPONENTS  0.6260000D+00 0.3386500D+02 0.5094790D+01 0.1158790D+01 0.3258400D+00
EXPONENTS  0.1027410D+00 0.3600000D-01 0.7500000D+00 0.7500000D+00 0.7500000D+00
EXPONENTS  0.3386500D+02 0.5094790D+01 0.1158790D+01 0.3258400D+00 0.1027410D+00
EXPONENTS  0.3600000D-01 0.7500000D+00 0.7500000D+00 0.7500000D+00 0.3386500D+02
EXPONENTS  0.5094790D+01 0.1158790D+01 0.3258400D+00 0.1027410D+00 0.3600000D-01
EXPONENTS  0.7500000D+00 0.7500000D+00 0.7500000D+00 0.4397000D+06 0.6603000D+05
EXPONENTS  0.1514000D+05 0.4317000D+04 0.1414000D+04 0.5239000D+03 0.5239000D+03
EXPONENTS  0.2077000D+03 0.8654000D+02 0.3052000D+02 0.1298000D+02 0.4412000D+01
EXPONENTS  0.1862000D+01 0.3932000D+00 0.1400000D+00 0.3500000D-01 0.3500000D-01
EXPONENTS  0.3500000D-01 0.3500000D-01 0.2957000D+04 0.7003000D+03 0.2246000D+03
EXPONENTS  0.2957000D+04 0.7003000D+03 0.2246000D+03 0.2957000D+04 0.7003000D+03
EXPONENTS  0.2246000D+03 0.8259000D+02 0.3319000D+02 0.1420000D+02 0.8259000D+02
EXPONENTS  0.3319000D+02 0.1420000D+02 0.8259000D+02 0.3319000D+02 0.1420000D+02
EXPONENTS  0.1420000D+02 0.7438000D+01 0.3526000D+01 0.1420000D+02 0.7438000D+01
EXPONENTS  0.3526000D+01 0.1420000D+02 0.7438000D+01 0.3526000D+01 0.1595000D+01
EXPONENTS  0.1595000D+01 0.1595000D+01 0.8462000D+00 0.8462000D+00 0.8462000D+00
EXPONENTS  0.3186000D+00 0.3186000D+00 0.3186000D+00 0.1096000D+00 0.1096000D+00
EXPONENTS  0.1096000D+00 0.1348000D+03 0.3639000D+02 0.1216000D+02 0.4341000D+01
EXPONENTS  0.1348000D+03 0.3639000D+02 0.1216000D+02 0.4341000D+01 0.1348000D+03
EXPONENTS  0.3639000D+02 0.1216000D+02 0.4341000D+01 0.1348000D+03 0.3639000D+02
EXPONENTS  0.1216000D+02 0.4341000D+01 0.1348000D+03 0.3639000D+02 0.1216000D+02
EXPONENTS  0.4341000D+01 0.1348000D+03 0.3639000D+02 0.1216000D+02 0.4341000D+01
EXPONENTS  0.1535000D+01 0.1535000D+01 0.1535000D+01 0.1535000D+01 0.1535000D+01
EXPONENTS  0.1535000D+01 0.4510000D+00 0.4510000D+00 0.4510000D+00 0.4510000D+00
EXPONENTS  0.4510000D+00 0.4510000D+00 0.1058190D+06 0.1587200D+05 0.3619650D+04
EXPONENTS  0.1030800D+04 0.3399080D+03 0.1245380D+03 0.1245380D+03 0.4951350D+02
EXPONENTS  0.2080560D+02 0.6583460D+01 0.2564680D+01 0.5597630D+00 0.1832730D+00
EXPONENTS  0.4830000D-01 0.4830000D-01 0.4830000D-01 0.4830000D-01 0.5897760D+03
EXPONENTS  0.1398490D+03 0.4514130D+02 0.1687330D+02 0.2771520D+01 0.5897760D+03
EXPONENTS  0.1398490D+03 0.4514130D+02 0.1687330D+02 0.2771520D+01 0.5897760D+03
EXPONENTS  0.1398490D+03 0.4514130D+02 0.1687330D+02 0.2771520D+01 0.6741100D+01
EXPONENTS  0.2771520D+01 0.6741100D+01 0.2771520D+01 0.6741100D+01 0.2771520D+01
EXPONENTS  0.1023870D+01 0.1023870D+01 0.1023870D+01 0.3813680D+00 0.3813680D+00
EXPONENTS  0.3813680D+00 0.1094370D+00 0.1094370D+00 0.1094370D+00 0.7500000D+00
EXPONENTS  0.7500000D+00 0.7500000D+00 0.7500000D+00 0.7500000D+00 0.7500000D+00
MO    1     MO 0.0        OCC NO =    2.0000000  ORB. ENERGY = -482.555717
 -0.81784198D-07 -0.15224888D-06 -0.25044797D-06 -0.33630959D-06 -0.31664815D-06
 -0.26021087D-07  0.21590756D-06  0.57370681D-06 -0.77339686D-09  0.30311077D-05
  0.28363700D-05  0.21968782D-05 -0.30903226D-08 -0.28917805D-08 -0.22397958D-08
 -0.97751484D-07 -0.91471305D-07 -0.70848061D-07 -0.88953818D-06 -0.30551024D-05
  0.33357727D-08  0.98639017D-07  0.18506539D-05  0.33319483D-05 -0.31954259D-08
 -0.10732698D-06  0.26081064D-05  0.13833423D-05 -0.14141076D-08 -0.44601931D-07
  0.19100208D-06 -0.95548714D-07 -0.95453366D-07 -0.36933985D-09 -0.18373700D-07
 -0.68400050D-10  0.91263056D-07  0.16462553D-06  0.24270143D-06 -0.14720954D-05
 -0.20074503D-05 -0.16024216D-05 -0.12172010D-05 -0.37578233D-06  0.64394064D-06
  0.91216991D-07  0.16454244D-06  0.24257892D-06 -0.14718504D-05 -0.20072111D-05
 -0.16025739D-05 -0.12564969D-05 -0.33382814D-06 -0.58791103D-06  0.91325870D-07
  0.16473884D-06  0.24286847D-06 -0.14723823D-05 -0.20077234D-05 -0.16021827D-05
 -0.12353368D-05  0.71376950D-06  0.63765289D-07  0.38584359D+01  0.71955608D+01
  0.12109067D+02  0.19065833D+02  0.25289924D+02  0.16475087D+02  0.96359566D+01
  0.16238834D+02  0.34607839D+01  0.81719493D-01 -0.11303784D-01  0.24797929D-02
 -0.63890929D-03  0.68892386D-04 -0.19872834D-04  0.17814448D-05 -0.28640786D-06
  0.28239443D-09  0.92308464D-08 -0.10100019D-03 -0.13508055D-03 -0.15602845D-03
  0.93361603D-07  0.12486449D-06  0.14422811D-06  0.32725712D-05  0.43768306D-05
  0.50555770D-05 -0.30405256D-04 -0.14341136D-04 -0.25344929D-05  0.26855565D-07
  0.12666867D-07  0.22386011D-08  0.98295501D-06  0.46362681D-06  0.81936245D-07
  0.24924722D-05  0.52068928D-05  0.33179557D-05 -0.26675977D-08 -0.55727383D-08
 -0.35510811D-08 -0.80495905D-07 -0.16815977D-06 -0.10715540D-06 -0.89020965D-05
  0.97175954D-08  0.28746372D-06  0.71746267D-05 -0.78622553D-08 -0.23167422D-06
 -0.33898504D-05  0.37145564D-08  0.10945337D-06  0.20042530D-05 -0.21808631D-08
 -0.64704944D-07 -0.60088765D-04 -0.44791952D-04 -0.20763134D-04 -0.48549230D-05
  0.30090998D-04  0.22430725D-04  0.10397675D-04  0.24312278D-05  0.29997767D-04
  0.22361228D-04  0.10365460D-04  0.24236952D-05  0.20199760D-06  0.15057501D-06
  0.69798460D-07  0.16320568D-07  0.58249781D-05  0.43421119D-05  0.20127690D-05
  0.47063407D-06 -0.65347494D-08 -0.48711965D-08 -0.22580241D-08 -0.52798065D-09
  0.46673866D-05 -0.23373057D-05 -0.23300809D-05 -0.15674923D-07 -0.45249047D-06
  0.48046024D-09 -0.11305210D-05  0.56613500D-06  0.56438595D-06  0.37894844D-08
  0.10960027D-06 -0.11540360D-09  0.56863769D-07  0.10618775D-06  0.18076106D-06
  0.28020993D-06  0.37733160D-06  0.28599378D-06 -0.20681222D-06 -0.48175139D-06
 -0.11751050D-06  0.77028255D-06 -0.73574785D-06  0.42877422D-06  0.14351236D-06
  0.53710843D-05  0.48408298D-06 -0.45631565D-09 -0.15589075D-07 -0.14660383D-05
 -0.18773563D-05 -0.20087511D-05 -0.15983894D-05 -0.36787788D-06  0.62661316D-09
  0.80241842D-09  0.85857911D-09  0.68318256D-09  0.15723813D-09  0.46825806D-07
  0.59963454D-07  0.64160253D-07  0.51053148D-07  0.11750155D-07  0.11770387D-05
 -0.24458894D-06 -0.43123856D-09  0.89611479D-10 -0.37558209D-07  0.78046050D-08
  0.38231057D-06 -0.19664737D-09 -0.12228467D-07  0.68829884D-07 -0.14874698D-09
 -0.22582305D-08  0.11098630D-05 -0.10793602D-08 -0.35761477D-07  0.69851670D-06
 -0.34978770D-06 -0.34872900D-06 -0.20015085D-08 -0.67537823D-07  0.55659357D-10
MO    2     MO 0.0        OCC NO =    2.0000000  ORB. ENERGY = -101.406731
  0.17845860D-05  0.33221726D-05  0.54649427D-05  0.73385008D-05  0.69094751D-05
  0.56779757D-06 -0.41940321D-05 -0.11144329D-04  0.15023334D-07 -0.52009531D-04
 -0.48668107D-04 -0.37695330D-04  0.51925061D-07  0.48589064D-07  0.37634108D-07
  0.16762206D-05  0.15685295D-05  0.12148867D-05 -0.54665087D-05  0.27156630D-04
 -0.27157268D-07 -0.87498211D-06  0.58553044D-04 -0.25852711D-04  0.25653414D-07
  0.83326328D-06 -0.12267509D-03  0.27574429D-04 -0.27472841D-07 -0.88878659D-06
 -0.13826972D-04  0.69248182D-05  0.69021541D-05  0.40913439D-07  0.13378624D-05
 -0.20065765D-08  0.64552434D-06  0.11644338D-05  0.17166824D-05 -0.23133089D-04
  0.28025354D-05  0.40208885D-05  0.13388462D-04 -0.87132438D-05  0.13535248D-04
  0.64550832D-06  0.11644049D-05  0.17166398D-05 -0.23132663D-04  0.28025666D-05
  0.40212082D-05  0.12471256D-04 -0.77514385D-05 -0.14923217D-04  0.64552412D-06
  0.11644334D-05  0.17166818D-05 -0.23133072D-04  0.28025619D-05  0.40203808D-05
  0.12981198D-04  0.16426824D-04  0.13693395D-06  0.29033334D-07  0.54143992D-07
  0.91116349D-07  0.14346350D-06  0.19029753D-06  0.12396907D-06 -0.99187047D-06
 -0.16715331D-05 -0.35623337D-06  0.60396428D-05 -0.85273563D-05  0.81071818D-05
 -0.56371058D-05  0.39002524D-05 -0.61537378D-05 -0.14182090D-04  0.21715178D-05
 -0.24788937D-08 -0.70176415D-07  0.12510191D-04  0.16731489D-04  0.19326160D-04
 -0.14949409D-07 -0.19993768D-07 -0.23094344D-07 -0.40464371D-06 -0.54118210D-06
 -0.62510708D-06 -0.39483394D-04 -0.18622988D-04 -0.32912198D-05  0.47256728D-07
  0.22289409D-07  0.39391822D-08  0.12771379D-05  0.60238299D-06  0.10645847D-06
  0.47864910D-05  0.99992071D-05  0.63717320D-05 -0.57389757D-08 -0.11988993D-07
 -0.76396708D-08 -0.15483003D-06 -0.32344730D-06 -0.20610829D-06 -0.16477275D-04
  0.19944732D-07  0.53309381D-06  0.11366555D-04 -0.13988426D-07 -0.36786678D-06
 -0.26998827D-05  0.36310738D-08  0.87544713D-07  0.16352078D-05 -0.20875368D-08
 -0.52961568D-07  0.16350838D-03  0.12188401D-03  0.56498856D-04  0.13210799D-04
 -0.81881548D-04 -0.61036940D-04 -0.28293435D-04 -0.66156894D-05 -0.81626834D-04
 -0.60847069D-04 -0.28205421D-04 -0.65951096D-05 -0.47437831D-06 -0.35361570D-06
 -0.16391717D-06 -0.38327800D-07 -0.15811297D-04 -0.11786211D-04 -0.54634520D-05
 -0.12774872D-05  0.15261925D-07  0.11376693D-07  0.52736215D-08  0.12331003D-08
 -0.12723950D-04  0.63718817D-05  0.63520684D-05  0.36932994D-07  0.12304149D-05
 -0.11843788D-08  0.30852893D-05 -0.15450422D-05 -0.15402470D-05 -0.89612825D-08
 -0.29834925D-06  0.28370303D-09  0.12702087D+01  0.23719955D+01  0.40377954D+01
  0.62592595D+01  0.84287392D+01  0.63884577D+01  0.23318112D+01  0.54317548D+01
  0.13249328D+01  0.43928752D-01 -0.57169723D-02  0.69100805D-03 -0.22963683D-03
  0.15464664D-03  0.23685632D-04 -0.23102569D-07 -0.76314375D-06  0.89145145D-03
  0.11415609D-02  0.12214579D-02  0.97192994D-03  0.22369488D-03 -0.86687344D-06
 -0.11100872D-05 -0.11877814D-05 -0.94513307D-06 -0.21752744D-06 -0.28721099D-04
 -0.36779213D-04 -0.39353363D-04 -0.31313983D-04 -0.72070809D-05 -0.18047472D-03
  0.37502691D-04  0.17453704D-06 -0.36268840D-07  0.58141138D-05 -0.12081743D-05
 -0.64933774D-04  0.62934402D-07  0.20919646D-05  0.46014349D-05 -0.43135781D-08
 -0.14816857D-06 -0.19873711D-04  0.19471667D-07  0.64037072D-06 -0.16194695D-04
  0.81099611D-05  0.80847340D-05  0.48096473D-07  0.15665263D-05 -0.15442962D-08
MO    3     MO 0.0        OCC NO =    2.0000000  ORB. ENERGY =  -62.208802
 -0.79889817D-06 -0.14872231D-05 -0.24464680D-05 -0.32851960D-05 -0.30931358D-05
 -0.25418356D-06  0.26174707D-05  0.69551098D-05 -0.93759739D-08  0.41726224D-04
  0.39045465D-04  0.30242222D-04 -0.42562466D-07 -0.39827981D-07 -0.30848311D-07
 -0.13456527D-05 -0.12591994D-05 -0.97529860D-06 -0.12556802D-04 -0.42952052D-04
  0.46851357D-07  0.13867465D-05  0.26151901D-04  0.47160328D-04 -0.45226987D-07
 -0.15191028D-05  0.37756800D-04  0.19655489D-04 -0.20091967D-07 -0.63373467D-06
  0.26301347D-05 -0.13156776D-05 -0.13144570D-05 -0.50953428D-08 -0.25301879D-06
 -0.97348047D-09  0.12442245D-05  0.22444035D-05  0.33088423D-05 -0.20659093D-04
 -0.28674147D-04 -0.22935000D-04 -0.17038277D-04 -0.52446611D-05  0.89889954D-05
  0.12435875D-05  0.22432545D-05  0.33071484D-05 -0.20655687D-04 -0.28670722D-04
 -0.22937177D-04 -0.17586693D-04 -0.46591231D-05 -0.82037718D-05  0.12450947D-05
  0.22459733D-05  0.33111566D-05 -0.20663097D-04 -0.28678041D-04 -0.22931592D-04
 -0.17291426D-04  0.99620157D-05  0.89158528D-06 -0.12742138D+01 -0.23762694D+01
 -0.39989108D+01 -0.62963204D+01 -0.83517707D+01 -0.54407497D+01 -0.53839914D+01
 -0.90732813D+01 -0.19336773D+01  0.58198844D+01  0.24292194D+01  0.10307895D+00
 -0.10915866D-01  0.99968213D-03 -0.28551190D-03  0.25549901D-04 -0.40906602D-05
  0.40329733D-08  0.13184011D-06 -0.19767907D-02 -0.26438166D-02 -0.30538121D-02
  0.71900907D-07  0.96162335D-07  0.11107492D-06  0.64089296D-04  0.85714861D-04
  0.99007278D-04 -0.29822614D-02 -0.14066324D-02 -0.24859256D-03  0.37137030D-06
  0.17516288D-06  0.30956339D-07  0.96658204D-04  0.45590423D-04  0.80571443D-05
  0.22686072D-04  0.47392283D-04  0.30199487D-04 -0.32839589D-07 -0.68603463D-07
 -0.43715754D-07 -0.73163999D-06 -0.15284307D-05 -0.97395231D-06 -0.11467300D-03
  0.13039391D-06  0.37013024D-05  0.97304481D-04 -0.10766529D-06 -0.31412830D-05
 -0.47550262D-04  0.52115114D-07  0.15352289D-05  0.28411009D-04 -0.30908889D-07
 -0.91720395D-06 -0.62901489D-03 -0.46888640D-03 -0.21735046D-03 -0.50821794D-04
  0.31502064D-03  0.23482575D-03  0.10885256D-03  0.25452361D-04  0.31399426D-03
  0.23406065D-03  0.10849790D-03  0.25369433D-04  0.21882658D-05  0.16311984D-05
  0.75613563D-06  0.17680280D-06  0.60877949D-04  0.45380233D-04  0.21035830D-04
  0.49186857D-05 -0.15691305D-06 -0.11696766D-06 -0.54219900D-07 -0.12677924D-07
  0.61818234D-04 -0.30957347D-04 -0.30860888D-04 -0.20949275D-06 -0.59914575D-05
  0.71653561D-08 -0.15627819D-04  0.78260175D-05  0.78018016D-05  0.52436024D-07
  0.15149852D-05 -0.15815744D-08  0.17121071D-06  0.31971994D-06  0.54425216D-06
  0.84368206D-06  0.11361050D-05  0.86109662D-06 -0.17741787D-05 -0.41327976D-05
 -0.10080866D-05  0.93981337D-05 -0.96929991D-05  0.59852329D-05  0.19490758D-05
  0.76196183D-04  0.68593500D-05 -0.64648857D-08 -0.22089348D-06 -0.17324429D-04
 -0.22185044D-04 -0.23737760D-04 -0.18888444D-04 -0.43472766D-05  0.76618495D-08
  0.98114908D-08  0.10498190D-07  0.83535463D-08  0.19226134D-08  0.55347730D-06
  0.70876326D-06  0.75836909D-06  0.60344415D-06  0.13888590D-06  0.12891296D-04
 -0.26788145D-05 -0.50273105D-08  0.10446764D-08 -0.41150195D-06  0.85510207D-07
  0.49411851D-05 -0.25689813D-08 -0.15806102D-06  0.10716085D-05 -0.21599572D-08
 -0.35080702D-07  0.15733915D-04 -0.15304935D-07 -0.50697211D-06  0.99011679D-05
 -0.49580907D-05 -0.49430772D-05 -0.28383989D-07 -0.95732307D-06  0.79107392D-09
MO    4     MO 0.0        OCC NO =    2.0000000  ORB. ENERGY =  -56.026597
 -0.33369282D-05 -0.62120016D-05 -0.10218684D-04 -0.13721978D-04 -0.12919759D-04
 -0.10617026D-05  0.94142295D-05  0.25015370D-04 -0.33722467D-07 -0.27761319D-04
 -0.25977754D-04 -0.20120775D-04  0.37294179D-07  0.34898163D-07  0.27029976D-07
  0.89662619D-06  0.83902120D-06  0.64985435D-06 -0.22390892D-04 -0.16833972D-05
 -0.10225996D-07  0.50088817D-07 -0.47428824D-04 -0.12933383D-04  0.16655196D-07
  0.41627751D-06 -0.10331207D-03  0.48467755D-04 -0.49849868D-07 -0.15624270D-05
  0.40300301D-04 -0.20186365D-04 -0.20113935D-04 -0.12304163D-06 -0.39016933D-05
  0.64038984D-08 -0.10466995D-04 -0.18880965D-04 -0.27835520D-04  0.71797010D-04
 -0.12598529D-04  0.56034677D-05  0.32657333D-04  0.31262681D-04 -0.51304095D-04
 -0.10466826D-04 -0.18880661D-04 -0.27835071D-04  0.71797294D-04 -0.12606162D-04
  0.56135034D-05  0.35952928D-04  0.27798911D-04  0.51079962D-04 -0.10466518D-04
 -0.18880105D-04 -0.27834251D-04  0.71795056D-04 -0.12604831D-04  0.56094226D-05
  0.34107652D-04 -0.59187170D-04 -0.30980545D-05 -0.31014970D-04 -0.57839525D-04
 -0.97335386D-04 -0.15325543D-03 -0.20328606D-03 -0.13243043D-03 -0.14153620D-03
 -0.23852150D-03 -0.50833167D-04  0.19725094D-03 -0.13151280D-04  0.76935162D-04
 -0.53258924D-04  0.25956975D-04 -0.18405753D-04 -0.42772013D-04 -0.12962953D-05
  0.49774505D-09  0.43577587D-07  0.87666681D+02  0.11724793D+03  0.13543041D+03
 -0.86804063D-01 -0.11609424D+00 -0.13409781D+00 -0.28487548D+01 -0.38100063D+01
 -0.44008512D+01  0.11272357D+03  0.53167917D+02  0.93963064D+01 -0.11161434D+00
 -0.52644731D-01 -0.93038443D-02 -0.36629861D+01 -0.17277073D+01 -0.30533577D+00
  0.10009535D+00  0.20910395D+00  0.13324600D+00 -0.99118898D-04 -0.20706409D-03
 -0.13194615D-03 -0.32526126D-02 -0.67948622D-02 -0.43298474D-02 -0.37485363D-01
  0.37145489D-04  0.12180399D-02  0.10498985D-01 -0.10416212D-04 -0.34112337D-03
 -0.10807559D-02  0.10759324D-05  0.35104890D-04  0.12290585D-03 -0.12351323D-06
 -0.39892564D-05 -0.24053805D-03 -0.17930421D-03 -0.83115768D-04 -0.19434477D-04
  0.12046721D-03  0.89799838D-04  0.41626364D-04  0.97332507D-05  0.12007084D-03
  0.89504376D-04  0.41489404D-04  0.97012260D-05  0.21932801D-06  0.16349362D-06
  0.75786829D-07  0.17720794D-07  0.23543118D-04  0.17549740D-04  0.81351135D-05
  0.19021863D-05 -0.73235818D-07 -0.54592156D-07 -0.25305981D-07 -0.59171503D-08
 -0.34285869D-05  0.17163818D-05  0.17122050D-05  0.15371255D-07  0.32449666D-06
  0.27111784D-08  0.16443116D-05 -0.82327689D-06 -0.82103469D-06 -0.45189364D-08
 -0.15815919D-06 -0.37488965D-09  0.28701130D-06  0.53596668D-06  0.91236420D-06
  0.14143174D-05  0.19045244D-05  0.14435105D-05 -0.31876732D-05 -0.74254123D-05
 -0.18112328D-05  0.17508090D-04 -0.18745323D-04  0.16709852D-04 -0.21788267D-04
  0.16951479D-03  0.17912657D-04 -0.16369124D-07 -0.57632190D-06 -0.99969466D-04
 -0.12801733D-03 -0.13697717D-03 -0.10899451D-03 -0.25085671D-04  0.97653449D-07
  0.12505152D-06  0.13380378D-06  0.10646941D-06  0.24504505D-07  0.32314110D-05
  0.41380294D-05  0.44276471D-05  0.35231364D-05  0.81086871D-06  0.76671136D-04
 -0.15932281D-04 -0.74825660D-07  0.15548790D-07 -0.24786760D-05  0.51506947D-06
  0.28886162D-04 -0.28270685D-07 -0.93335939D-06 -0.15949502D-04  0.15645828D-07
  0.51529404D-06  0.10626793D-04 -0.11114149D-07 -0.34321955D-06 -0.11477167D-05
  0.57492416D-06  0.57279255D-06  0.35079212D-08  0.11126269D-06 -0.11811404D-10
MO    5     MO 0.0        OCC NO =    2.0000000  ORB. ENERGY =  -56.026529
  0.77257758D-09  0.14382249D-08  0.23658664D-08  0.31769615D-08  0.29912290D-08
  0.24580920D-09 -0.22602738D-08 -0.60059707D-08  0.80964681D-11 -0.20793519D-06
 -0.19457611D-06 -0.15070672D-06  0.11719191D-04  0.10966275D-04  0.84938042D-05
 -0.69351650D-05 -0.64896057D-05 -0.50264504D-05  0.60141527D-08  0.13843761D-06
 -0.75754900D-05  0.44848798D-05  0.54235623D-08 -0.15131530D-06  0.84331516D-05
 -0.49891934D-05  0.24041170D-07  0.26575950D-07 -0.20956655D-05  0.12400400D-05
 -0.52629270D-07 -0.18502437D-05  0.19028729D-05  0.24758812D-05 -0.13987389D-05
 -0.28140551D-05 -0.82212491D-06 -0.14829960D-05 -0.21863271D-05  0.98467603D-06
  0.18227712D-04 -0.20714253D-04  0.17044566D-04 -0.71866034D-06 -0.86042027D-05
  0.43222426D-07  0.77967091D-07  0.11494404D-06 -0.61646710D-07 -0.91075336D-06
  0.10379279D-05 -0.73412844D-06 -0.94357418D-05  0.46804962D-05  0.78464111D-06
  0.14153806D-05  0.20866441D-05 -0.96046873D-06 -0.17303922D-04  0.19671417D-04
 -0.16250277D-04  0.59828446D-05  0.63946912D-05 -0.25186057D-07 -0.46969241D-07
 -0.79042302D-07 -0.12445281D-06 -0.16508075D-06 -0.10754163D-06 -0.10395467D-06
 -0.17518786D-06 -0.37335643D-07  0.10987720D-06  0.57990525D-07 -0.13295572D-07
  0.10714428D-07 -0.53915814D-08  0.40487759D-08  0.10506124D-07  0.13103349D-06
 -0.72809697D-05  0.43070673D-05 -0.13762248D+01 -0.18406025D+01 -0.21260379D+01
  0.75484586D+02  0.10095525D+03  0.11661110D+03 -0.44651591D+02 -0.59718318D+02
 -0.68979265D+02 -0.17695857D+01 -0.83465404D+00 -0.14750747D+00  0.97060052D+02
  0.45779961D+02  0.80906411D+01 -0.57414181D+02 -0.27080338D+02 -0.47858777D+01
 -0.15701694D-02 -0.32801585D-02 -0.20901948D-02  0.86121418D-01  0.17991173D+00
  0.11464403D+00 -0.50943622D-01 -0.10642365D+00 -0.67815674D-01  0.58435243D-03
 -0.32048137D-01  0.18957515D-01 -0.16173781D-03  0.88689093D-02 -0.52462482D-02
  0.15954834D-04 -0.87438586D-03  0.51722788D-03 -0.16043166D-05  0.87746935D-04
 -0.51905260D-04  0.89353030D-05  0.66606405D-05  0.30875139D-05  0.72193541D-06
  0.54019165D-07  0.40267492D-07  0.18665838D-07  0.43645245D-08 -0.89893221D-05
 -0.67009080D-05 -0.31061797D-05 -0.72629994D-06 -0.48199651D-03 -0.35929453D-03
 -0.16654958D-03 -0.38943319D-04  0.28481544D-03  0.21230990D-03  0.98415424D-04
  0.23011906D-04  0.15439021D-04  0.11508705D-04  0.53348154D-05  0.12474089D-05
 -0.15099984D-06 -0.56400296D-07  0.20740013D-06  0.81572215D-05 -0.48182173D-05
 -0.34214135D-06  0.24555563D-07  0.90017023D-08 -0.33557265D-07 -0.13390972D-05
  0.79120874D-06  0.54700800D-07 -0.72078845D-10 -0.13460048D-09 -0.22912741D-09
 -0.35518588D-09 -0.47829447D-09 -0.36251733D-09  0.80053788D-09  0.18647846D-08
  0.45486485D-09 -0.43983642D-08  0.47122714D-08 -0.42702397D-08  0.54377531D-08
 -0.40139624D-07  0.74058081D-08 -0.64923981D-06  0.38426058D-06  0.66948605D-06
  0.85731991D-06  0.91732312D-06  0.72992593D-06  0.16799636D-06 -0.35443220D-04
 -0.45387321D-04 -0.48563947D-04 -0.38642964D-04 -0.88938851D-05  0.20965655D-04
  0.26847868D-04  0.28726931D-04  0.22858393D-04  0.52609815D-05 -0.53790298D-06
  0.11177637D-06  0.28524120D-04 -0.59273190D-05 -0.16872855D-04  0.35061834D-05
 -0.16965594D-06  0.89353550D-05 -0.52854782D-05  0.88755789D-07 -0.46645810D-05
  0.27592246D-05 -0.29035716D-07  0.14496483D-05 -0.85746283D-06  0.48306831D-08
  0.43800949D-06 -0.44284017D-06 -0.26332679D-06  0.14098346D-06  0.65485230D-06
MO    6     MO 0.0        OCC NO =    2.0000000  ORB. ENERGY =  -56.026529
 -0.23623096D-09 -0.43976585D-09 -0.72341070D-09 -0.97141915D-09 -0.91462775D-09
 -0.75161051D-10  0.54340129D-09  0.14439190D-08 -0.19465036D-11  0.37884289D-06
  0.35450361D-06  0.27457675D-06  0.69370292D-05  0.64913502D-05  0.50278016D-05
  0.11720082D-04  0.10967109D-04  0.84944496D-05 -0.37028890D-09 -0.24734002D-06
 -0.44852488D-05 -0.75811122D-05 -0.11580178D-07  0.27300878D-06  0.49912740D-05
  0.84305132D-05 -0.50091664D-08 -0.65812187D-07 -0.12402787D-05 -0.20946949D-05
  0.90364007D-07 -0.13707848D-05  0.12804208D-05  0.16356859D-05  0.26517687D-05
  0.36549483D-05  0.42645589D-06  0.76926558D-06  0.11341002D-05 -0.50515649D-06
 -0.94664251D-05  0.10759555D-04 -0.90640212D-05 -0.96889141D-05 -0.18074151D-05
 -0.92913694D-06 -0.16760305D-05 -0.24709107D-05  0.11325328D-05  0.20517863D-04
 -0.23318692D-04  0.19712984D-04  0.29957426D-05  0.60210342D-05  0.49809019D-06
  0.89848365D-06  0.13246017D-05 -0.59319873D-06 -0.11048059D-04  0.12558124D-04
 -0.10765686D-04  0.42229634D-05 -0.83907673D-05 -0.17619848D-07 -0.32859088D-07
 -0.55296997D-07 -0.87065611D-07 -0.11548841D-06 -0.75234767D-07 -0.75712435D-07
 -0.12759311D-06 -0.27192357D-07  0.91968075D-07  0.20308863D-07  0.11618764D-07
 -0.72493834D-08  0.29144201D-08 -0.15929533D-08 -0.18247084D-08 -0.24037186D-06
 -0.43090209D-05 -0.72772299D-05  0.24957877D+01  0.33379380D+01  0.38555759D+01
  0.44672710D+02  0.59746563D+02  0.69011890D+02  0.75443365D+02  0.10090012D+03
  0.11654742D+03  0.32091488D+01  0.15136475D+01  0.26750523D+00  0.57441337D+02
  0.27093146D+02  0.47881413D+01  0.97007048D+02  0.45754961D+02  0.80862229D+01
  0.28474883D-02  0.59485383D-02  0.37905497D-02  0.50967723D-01  0.10647400D+00
  0.67847757D-01  0.86074395D-01  0.17981350D+00  0.11458143D+00 -0.10596600D-02
 -0.18966497D-01 -0.32030658D-01  0.29326446D-03  0.52487371D-02  0.88640788D-02
 -0.28918967D-04 -0.51747337D-03 -0.87391084D-03  0.29033503D-05  0.51929901D-04
  0.87699662D-04 -0.15766391D-04 -0.11752736D-04 -0.54479350D-05 -0.12738590D-05
 -0.77670012D-09 -0.57897536D-09 -0.26838177D-09 -0.62754148D-10  0.15767167D-04
  0.11753315D-04  0.54482034D-05  0.12739217D-05 -0.28532072D-03 -0.21268655D-03
 -0.98590018D-04 -0.23052731D-04 -0.48131113D-03 -0.35878363D-03 -0.16631275D-03
 -0.38887943D-04  0.94178688D-05  0.70203594D-05  0.32542602D-05  0.76092474D-06
  0.26362444D-06 -0.38889485D-07 -0.22473496D-06  0.48364135D-05  0.81556132D-05
 -0.48533007D-07 -0.43215093D-07  0.60600417D-08  0.37155051D-07 -0.79388707D-06
 -0.13392185D-05  0.10202641D-07  0.75296739D-11  0.14060960D-10  0.23935660D-10
  0.37104283D-10  0.49964749D-10  0.37870158D-10 -0.83528699D-10 -0.19457296D-09
 -0.47460926D-10  0.45905781D-09 -0.49279820D-09  0.34219160D-09 -0.61809226D-09
  0.87921891D-08 -0.20556646D-07 -0.38428107D-06 -0.64911948D-06 -0.11588409D-05
 -0.14839703D-05 -0.15878323D-05 -0.12634588D-05 -0.29079181D-06 -0.20976508D-04
 -0.26861767D-04 -0.28741802D-04 -0.22870226D-04 -0.52637050D-05 -0.35426573D-04
 -0.45366003D-04 -0.48541137D-04 -0.38624814D-04 -0.88897079D-05  0.93237649D-06
 -0.19374806D-06  0.16881559D-04 -0.35079920D-05  0.28510769D-04 -0.59245447D-05
  0.29236350D-06  0.52882419D-05  0.89311321D-05 -0.15268967D-06 -0.27606645D-05
 -0.46624218D-05  0.47585832D-07  0.85796324D-06  0.14489983D-05 -0.10101503D-07
  0.32344964D-06 -0.31334814D-06 -0.19630830D-06 -0.30649619D-06 -0.87002620D-06
MO    7     MO 0.0        OCC NO =    2.0000000  ORB. ENERGY =  -10.080364
  0.43813715D+00  0.81563298D+00  0.13417086D+01  0.18016894D+01  0.16963585D+01
  0.13940107D+00  0.37088066D+00  0.98549936D+00 -0.13285220D-02 -0.31840830D-02
 -0.29795172D-02 -0.23077513D-02  0.32918156D-05  0.30803284D-05  0.23858334D-05
  0.10269112D-03  0.96093583D-04  0.74428195D-04  0.79454507D-02  0.16398145D-02
 -0.16639204D-05 -0.52863252D-04 -0.15051738D-02  0.64266198D-04 -0.63113221D-07
 -0.20699433D-05 -0.67374630D-03 -0.88437879D-04  0.93402574D-07  0.28527276D-05
 -0.12622465D-02  0.63213006D-03  0.63011645D-03  0.37285186D-05  0.12212142D-03
 -0.13166690D-06  0.56308762D-04  0.10157297D-03  0.14974534D-03 -0.12913462D-02
  0.73488374D-03  0.24950424D-04  0.60967540D-03 -0.12115716D-02  0.19244019D-02
  0.56310015D-04  0.10157523D-03  0.14974867D-03 -0.12913435D-02  0.73488821D-03
  0.24943692D-04  0.48211087D-03 -0.10777549D-02 -0.20368861D-02  0.56307771D-04
  0.10157119D-03  0.14974270D-03 -0.12913307D-02  0.73487221D-03  0.24953190D-04
  0.55303464D-03  0.22876851D-02  0.59468597D-04 -0.32134686D-06 -0.59927673D-06
 -0.10084943D-05 -0.15878832D-05 -0.21062519D-05 -0.13721149D-05  0.52525530D-05
  0.88517769D-05  0.18864708D-05 -0.48670191D-04  0.87499270D-04 -0.10806575D-03
  0.85921931D-04 -0.30863397D-04  0.34189129D-04  0.13335640D-03 -0.21437361D-04
  0.23071908D-07  0.69190721D-06  0.96246353D-04  0.12872263D-03  0.14868457D-03
 -0.12274057D-06 -0.16415676D-06 -0.18961373D-06 -0.31159736D-05 -0.41673924D-05
 -0.48136598D-05  0.38947928D-03  0.18370428D-03  0.32465850D-04 -0.48830704D-06
 -0.23031800D-06 -0.40703842D-07 -0.12605567D-04 -0.59456218D-05 -0.10507631D-05
 -0.57507875D-04 -0.12013668D-03 -0.76553946D-04  0.71468562D-07  0.14930122D-06
  0.95138282D-07  0.18609560D-05  0.38876255D-05  0.24772872D-05  0.27977668D-03
 -0.33911845D-06 -0.90493813D-05 -0.25989478D-03  0.30757506D-06  0.84025653D-05
  0.11360125D-03 -0.13040114D-06 -0.36707084D-05 -0.29588982D-04  0.36469220D-07
  0.95728880D-06 -0.58504802D-03 -0.43611219D-03 -0.20215810D-03 -0.47269453D-04
  0.29303363D-03  0.21843598D-03  0.10125514D-03  0.23675901D-04  0.29201440D-03
  0.21767621D-03  0.10090296D-03  0.23593552D-04  0.16749366D-05  0.12485476D-05
  0.57875935D-06  0.13532793D-06  0.56590110D-04  0.42183950D-04  0.19554205D-04
  0.45722461D-05 -0.96823376D-07 -0.72175023D-07 -0.33456450D-07 -0.78229271D-08
  0.61834400D-04 -0.30970635D-04 -0.30863764D-04 -0.17741129D-06 -0.59810358D-05
  0.98956330D-08 -0.28867012D-04  0.14457758D-04  0.14409255D-04  0.83798811D-07
  0.27923971D-05 -0.40831138D-08 -0.11114021D-04 -0.20754391D-04 -0.35329739D-04
 -0.54767016D-04 -0.73749443D-04 -0.55897470D-04 -0.48254859D-04 -0.11240557D-03
 -0.27418364D-04  0.13875563D-03 -0.94767243D-04 -0.20562819D-04  0.23098191D-03
  0.34693841D-04  0.16989691D-05 -0.50053570D-08 -0.56338636D-07 -0.14495609D-02
 -0.18562558D-02 -0.19861739D-02 -0.15804244D-02 -0.36374313D-03  0.14283022D-05
  0.18290328D-05  0.19570455D-05  0.15572465D-05  0.35840863D-06  0.46711917D-04
  0.59817612D-04  0.64004204D-04  0.50928978D-04  0.11721577D-04  0.79784448D-03
 -0.16579228D-03 -0.78602160D-06  0.16333548D-06 -0.25710219D-04  0.53425899D-05
  0.21973520D-03 -0.21679119D-06 -0.70812743D-05  0.13874200D-03 -0.13687105D-06
 -0.44709237D-05  0.74033088D-04 -0.70994022D-07 -0.23846084D-05  0.22367353D-03