 Single Point Energy
GAUSSIAN             31 MOL ORBITALS    210 PRIMITIVES        6 NUCLEI   B3LYP
  C    1    (CENTRE  1)  -0.66268338  0.01567756  0.10128283  CHARGE =  6.0
  H    2    (CENTRE  2)  -0.99002321 -1.01428732  1.83221316  CHARGE =  1.0
  H    3    (CENTRE  3)  -1.49971304 -0.88880166 -1.52518318  CHARGE =  1.0
  H    4    (CENTRE  4)  -1.16195385  1.98862176  0.25080601  CHARGE =  1.0
  Br   5    (CENTRE  5)   3.16672012 -0.07294927 -0.48333182  CHARGE = 35.0
  Cl   6    (CENTRE  6)  -6.07102435  0.13962507  0.92653415  CHARGE = 17.0
CENTRE ASSIGNMENTS    1  1  1  1  1  1  1  1  1  1  1  1  1  1  1  1  1  1  1  1
CENTRE ASSIGNMENTS    1  1  1  1  1  1  1  1  1  1  1  1  1  1  1  1  2  2  2  2
CENTRE ASSIGNMENTS    2  2  2  2  2  3  3  3  3  3  3  3  3  3  4  4  4  4  4  4
CENTRE ASSIGNMENTS    4  4  4  5  5  5  5  5  5  5  5  5  5  5  5  5  5  5  5  5
CENTRE ASSIGNMENTS    5  5  5  5  5  5  5  5  5  5  5  5  5  5  5  5  5  5  5  5
CENTRE ASSIGNMENTS    5  5  5  5  5  5  5  5  5  5  5  5  5  5  5  5  5  5  5  5
CENTRE ASSIGNMENTS    5  5  5  5  5  5  5  5  5  5  5  5  5  5  5  5  5  5  5  5
CENTRE ASSIGNMENTS    5  5  5  5  5  5  5  5  5  5  5  5  5  5  5  5  5  6  6  6
CENTRE ASSIGNMENTS    6  6  6  6  6  6  6  6  6  6  6  6  6  6  6  6  6  6  6  6
CENTRE ASSIGNMENTS    6  6  6  6  6  6  6  6  6  6  6  6  6  6  6  6  6  6  6  6
CENTRE ASSIGNMENTS    6  6  6  6  6  6  6  6  6  6
TYPE ASSIGNMENTS      1  1  1  1  1  1  1  1  1  2  2  2  3  3  3  4  4  4  1  2
TYPE ASSIGNMENTS      3  4  1  2  3  4  1  2  3  4  5  6  7  8  9 10  1  1  1  1
TYPE ASSIGNMENTS      1  1  2  3  4  1  1  1  1  1  1  2  3  4  1  1  1  1  1  1
TYPE ASSIGNMENTS      2  3  4  1  1  1  1  1  1  1  1  1  1  1  1  1  1  1  1  2
TYPE ASSIGNMENTS      3  4  2  2  2  3  3  3  4  4  4  2  2  2  3  3  3  4  4  4
TYPE ASSIGNMENTS      2  2  2  3  3  3  4  4  4  2  3  4  2  3  4  2  3  4  2  3
TYPE ASSIGNMENTS      4  5  5  5  5  6  6  6  6  7  7  7  7  8  8  8  8  9  9  9
TYPE ASSIGNMENTS      9 10 10 10 10  5  6  7  8  9 10  5  6  7  8  9 10  1  1  1
TYPE ASSIGNMENTS      1  1  1  1  1  1  1  1  1  1  1  2  3  4  2  2  2  2  2  3
TYPE ASSIGNMENTS      3  3  3  3  4  4  4  4  4  2  2  3  3  4  4  2  3  4  2  3
TYPE ASSIGNMENTS      4  2  3  4  5  6  7  8  9 10
EXPONENTS  0.4563240D+04 0.6820240D+03 0.1549730D+03 0.4445530D+02 0.1302900D+02
EXPONENTS  0.1827730D+01 0.2096420D+02 0.4803310D+01 0.1459330D+01 0.2096420D+02
EXPONENTS  0.4803310D+01 0.1459330D+01 0.2096420D+02 0.4803310D+01 0.1459330D+01
EXPONENTS  0.2096420D+02 0.4803310D+01 0.1459330D+01 0.4834560D+00 0.4834560D+00
EXPONENTS  0.4834560D+00 0.4834560D+00 0.1455850D+00 0.1455850D+00 0.1455850D+00
EXPONENTS  0.1455850D+00 0.4380000D-01 0.4380000D-01 0.4380000D-01 0.4380000D-01
EXPONENTS  0.6260000D+00 0.6260000D+00 0.6260000D+00 0.6260000D+00 0.6260000D+00
EXPONENTS  0.6260000D+00 0.3386500D+02 0.5094790D+01 0.1158790D+01 0.3258400D+00
EXPONENTS  0.1027410D+00 0.3600000D-01 0.7500000D+00 0.7500000D+00 0.7500000D+00
EXPONENTS  0.3386500D+02 0.5094790D+01 0.1158790D+01 0.3258400D+00 0.1027410D+00
EXPONENTS  0.3600000D-01 0.7500000D+00 0.7500000D+00 0.7500000D+00 0.3386500D+02
EXPONENTS  0.5094790D+01 0.1158790D+01 0.3258400D+00 0.1027410D+00 0.3600000D-01
EXPONENTS  0.7500000D+00 0.7500000D+00 0.7500000D+00 0.4397000D+06 0.6603000D+05
EXPONENTS  0.1514000D+05 0.4317000D+04 0.1414000D+04 0.5239000D+03 0.5239000D+03
EXPONENTS  0.2077000D+03 0.8654000D+02 0.3052000D+02 0.1298000D+02 0.4412000D+01
EXPONENTS  0.1862000D+01 0.3932000D+00 0.1400000D+00 0.3500000D-01 0.3500000D-01
EXPONENTS  0.3500000D-01 0.3500000D-01 0.2957000D+04 0.7003000D+03 0.2246000D+03
EXPONENTS  0.2957000D+04 0.7003000D+03 0.2246000D+03 0.2957000D+04 0.7003000D+03
EXPONENTS  0.2246000D+03 0.8259000D+02 0.3319000D+02 0.1420000D+02 0.8259000D+02
EXPONENTS  0.3319000D+02 0.1420000D+02 0.8259000D+02 0.3319000D+02 0.1420000D+02
EXPONENTS  0.1420000D+02 0.7438000D+01 0.3526000D+01 0.1420000D+02 0.7438000D+01
EXPONENTS  0.3526000D+01 0.1420000D+02 0.7438000D+01 0.3526000D+01 0.1595000D+01
EXPONENTS  0.1595000D+01 0.1595000D+01 0.8462000D+00 0.8462000D+00 0.8462000D+00
EXPONENTS  0.3186000D+00 0.3186000D+00 0.3186000D+00 0.1096000D+00 0.1096000D+00
EXPONENTS  0.1096000D+00 0.1348000D+03 0.3639000D+02 0.1216000D+02 0.4341000D+01
EXPONENTS  0.1348000D+03 0.3639000D+02 0.1216000D+02 0.4341000D+01 0.1348000D+03
EXPONENTS  0.3639000D+02 0.1216000D+02 0.4341000D+01 0.1348000D+03 0.3639000D+02
EXPONENTS  0.1216000D+02 0.4341000D+01 0.1348000D+03 0.3639000D+02 0.1216000D+02
EXPONENTS  0.4341000D+01 0.1348000D+03 0.3639000D+02 0.1216000D+02 0.4341000D+01
EXPONENTS  0.1535000D+01 0.1535000D+01 0.1535000D+01 0.1535000D+01 0.1535000D+01
EXPONENTS  0.1535000D+01 0.4510000D+00 0.4510000D+00 0.4510000D+00 0.4510000D+00
EXPONENTS  0.4510000D+00 0.4510000D+00 0.1058190D+06 0.1587200D+05 0.3619650D+04
EXPONENTS  0.1030800D+04 0.3399080D+03 0.1245380D+03 0.1245380D+03 0.4951350D+02
EXPONENTS  0.2080560D+02 0.6583460D+01 0.2564680D+01 0.5597630D+00 0.1832730D+00
EXPONENTS  0.4830000D-01 0.4830000D-01 0.4830000D-01 0.4830000D-01 0.5897760D+03
EXPONENTS  0.1398490D+03 0.4514130D+02 0.1687330D+02 0.2771520D+01 0.5897760D+03
EXPONENTS  0.1398490D+03 0.4514130D+02 0.1687330D+02 0.2771520D+01 0.5897760D+03
EXPONENTS  0.1398490D+03 0.4514130D+02 0.1687330D+02 0.2771520D+01 0.6741100D+01
EXPONENTS  0.2771520D+01 0.6741100D+01 0.2771520D+01 0.6741100D+01 0.2771520D+01
EXPONENTS  0.1023870D+01 0.1023870D+01 0.1023870D+01 0.3813680D+00 0.3813680D+00
EXPONENTS  0.3813680D+00 0.1094370D+00 0.1094370D+00 0.1094370D+00 0.7500000D+00
EXPONENTS  0.7500000D+00 0.7500000D+00 0.7500000D+00 0.7500000D+00 0.7500000D+00
MO    1     MO 0.0        OCC NO =    2.0000000  ORB. ENERGY = -482.682310
  0.20243166D-06  0.37684532D-06  0.61990701D-06  0.83243108D-06  0.78376524D-06
  0.64407207D-07 -0.45526407D-06 -0.12097219D-05  0.16307896D-08  0.39694651D-05
  0.37144413D-05  0.28769784D-05 -0.92097177D-07 -0.86180267D-07 -0.66749948D-07
 -0.60597830D-06 -0.56704638D-06 -0.43919934D-06 -0.61180848D-07 -0.62041954D-06
  0.14422891D-07  0.94594316D-07  0.53990944D-05  0.12943947D-05 -0.30245303D-07
 -0.19771126D-06  0.76773712D-05  0.35016469D-05 -0.80778244D-07 -0.53448311D-06
 -0.21524889D-05  0.11134574D-05  0.10390315D-05  0.15145754D-06  0.99785449D-06
 -0.22975733D-07 -0.19866450D-06 -0.35836242D-06 -0.52832067D-06 -0.10509549D-05
 -0.13319230D-05 -0.18276859D-06  0.36653763D-07 -0.62499873D-06  0.10063851D-05
 -0.19864823D-06 -0.35833307D-06 -0.52827740D-06 -0.10512003D-05 -0.13320732D-05
 -0.18289561D-06 -0.27018679D-06 -0.54974683D-06 -0.10151208D-05 -0.19868954D-06
 -0.35840759D-06 -0.52838725D-06 -0.10508200D-05 -0.13314353D-05 -0.18239992D-06
 -0.67632621D-07  0.11817710D-05  0.54553371D-07  0.38584362D+01  0.71955615D+01
  0.12109068D+02  0.19065835D+02  0.25289927D+02  0.16475089D+02  0.96359543D+01
  0.16238831D+02  0.34607831D+01  0.81731839D-01 -0.11320950D-01  0.24950737D-02
 -0.64908405D-03  0.75221567D-04 -0.26596377D-04 -0.60115328D-05  0.64964605D-06
 -0.15125624D-07 -0.99208794D-07 -0.22358266D-02 -0.29902586D-02 -0.34539794D-02
  0.51803644D-04  0.69283679D-04  0.80027995D-04  0.34133589D-03  0.45651241D-03
  0.52730705D-03 -0.25130048D-03 -0.11852998D-03 -0.20947671D-04  0.58268789D-05
  0.27483428D-05  0.48571153D-06  0.38367435D-04  0.18096628D-04  0.31981968D-05
  0.65768042D-05  0.13739257D-04  0.87549803D-05 -0.15285538D-06 -0.31932215D-06
 -0.20347965D-06 -0.10042607D-05 -0.20979484D-05 -0.13368625D-05 -0.16039285D-04
  0.37326997D-06  0.24493588D-05  0.11570336D-04 -0.26929204D-06 -0.17669183D-05
 -0.47617318D-05  0.11073333D-06  0.72713359D-06  0.38035384D-05 -0.88213181D-07
 -0.58072678D-06 -0.37242317D-04 -0.27761530D-04 -0.12868749D-04 -0.30090247D-05
  0.19263268D-04  0.14359413D-04  0.66562496D-05  0.15563921D-05  0.17979049D-04
  0.13402118D-04  0.62124993D-05  0.14526326D-05  0.26336631D-05  0.19632108D-05
  0.91003869D-06  0.21278906D-06  0.17268356D-04  0.12872346D-04  0.59669257D-05
  0.13952115D-05 -0.40163904D-06 -0.29939368D-06 -0.13878277D-06 -0.32450768D-07
  0.59428434D-05 -0.30740156D-05 -0.28688278D-05 -0.41891648D-06 -0.27550575D-05
  0.63924761D-07 -0.17618255D-05  0.91133504D-06  0.85049049D-06  0.12410608D-06
  0.81673756D-06 -0.18939945D-07  0.15617379D-06  0.29163990D-06  0.49645214D-06
  0.76958400D-06  0.10363243D-05  0.78546909D-06 -0.56859855D-06 -0.13245017D-05
 -0.32307714D-06  0.21197824D-05 -0.20290458D-05  0.15758845D-05 -0.19839390D-05
  0.52884053D-05  0.83857750D-06 -0.19082070D-07 -0.12791166D-06 -0.11961781D-04
 -0.15317829D-04 -0.16389913D-04 -0.13041667D-04 -0.30016095D-05  0.27333310D-06
  0.35002060D-06  0.37451829D-06  0.29800908D-06  0.68588385D-07  0.18249834D-05
  0.23370086D-05  0.25005741D-05  0.19897394D-05  0.45794917D-06  0.10516335D-04
 -0.21852970D-05 -0.24027733D-06  0.49929688D-07 -0.16044451D-05  0.33340409D-06
  0.27767653D-05 -0.63481431D-07 -0.42365649D-06 -0.14634579D-05  0.33500051D-07
  0.22329788D-06  0.83129906D-06 -0.19119633D-07 -0.12687178D-06  0.65290327D-06
 -0.33777249D-06 -0.31513078D-06 -0.45121259D-07 -0.30236010D-06  0.69033577D-08
MO    2     MO 0.0        OCC NO =    2.0000000  ORB. ENERGY = -101.260218
  0.36189117D-06  0.67369400D-06  0.11082203D-05  0.14881539D-05  0.14011530D-05
  0.11514207D-06 -0.86540420D-06 -0.22995410D-05  0.30999419D-08 -0.15400837D-04
 -0.14411389D-04 -0.11162178D-04  0.35207143D-06  0.32945212D-06  0.25517340D-06
  0.23497388D-05  0.21987766D-05  0.17030374D-05 -0.22519114D-05  0.13542461D-04
 -0.30441262D-06 -0.20642147D-05  0.19839762D-04 -0.20069299D-04  0.46432869D-06
  0.30639183D-05 -0.40943859D-05  0.57147559D-05 -0.13111023D-06 -0.87208112D-06
 -0.48650484D-05  0.25191404D-05  0.23459080D-05  0.33881974D-06  0.22531744D-05
 -0.53038173D-07  0.30141283D-05  0.54370574D-05  0.80156558D-05 -0.26648778D-04
  0.25004465D-05 -0.66750514D-05  0.12535737D-04 -0.77314392D-05  0.10141110D-04
  0.30136699D-05  0.54362306D-05  0.80144368D-05 -0.26647333D-04  0.25030878D-05
 -0.66780993D-05  0.88781313D-05 -0.68280365D-05 -0.13929885D-04  0.30150769D-05
  0.54387685D-05  0.80181783D-05 -0.26651986D-04  0.24945416D-05 -0.66683957D-05
  0.11310166D-04  0.13819793D-04 -0.12006260D-05  0.79247648D-07  0.14778819D-06
  0.24870572D-06  0.39158936D-06  0.51942473D-06  0.33837854D-06 -0.27411202D-05
 -0.46194269D-05 -0.98448187D-06  0.16682306D-04 -0.23538285D-04  0.22339599D-04
 -0.15408959D-04  0.80657728D-05 -0.37542220D-05  0.32553239D-05 -0.91126570D-06
  0.20552162D-07  0.13893521D-06  0.52692443D-05  0.70472384D-05  0.81401041D-05
 -0.12129050D-06 -0.16221739D-06 -0.18737360D-06 -0.80403391D-06 -0.10753380D-05
 -0.12420984D-05 -0.15950793D-04 -0.75234523D-05 -0.13296113D-05  0.36705776D-06
  0.17312879D-06  0.30596858D-07  0.24338638D-05  0.11479717D-05  0.20287974D-06
  0.19701369D-05  0.41157097D-05  0.26226279D-05 -0.45341651D-07 -0.94720865D-07
 -0.60358382D-07 -0.30061677D-06 -0.62800271D-06 -0.40017823D-06 -0.73824679D-05
  0.16998193D-06  0.11264942D-05  0.60421500D-05 -0.13923033D-06 -0.92201843D-06
 -0.35362613D-05  0.81679895D-07  0.53972447D-06 -0.29827392D-05  0.68968339D-07
  0.45536483D-06  0.17746209D-03  0.13228552D-03  0.61320434D-04  0.14338201D-04
 -0.91794445D-04 -0.68426308D-04 -0.31718748D-04 -0.74166103D-05 -0.85667643D-04
 -0.63859208D-04 -0.29601686D-04 -0.69215902D-05 -0.12474949D-04 -0.92991976D-05
 -0.43106067D-05 -0.10079241D-05 -0.82261612D-04 -0.61320251D-04 -0.28424763D-04
 -0.66463970D-05  0.19016083D-05  0.14175153D-05  0.65708370D-06  0.15364206D-06
 -0.14329779D-04  0.74122585D-05  0.69175203D-05  0.10073482D-05  0.66424868D-05
 -0.15356014D-06  0.44802729D-05 -0.23174933D-05 -0.21627797D-05 -0.31496278D-06
 -0.20767860D-05  0.48027691D-07  0.12702095D+01  0.23719971D+01  0.40377980D+01
  0.62592636D+01  0.84287447D+01  0.63884619D+01  0.23318234D+01  0.54317833D+01
  0.13249398D+01  0.43863125D-01 -0.56553796D-02  0.64181278D-03 -0.17188316D-03
  0.40377626D-04  0.83234835D-05 -0.19128594D-06 -0.12702594D-05  0.13050194D-03
  0.16711612D-03  0.17881246D-03  0.14228340D-03  0.32747286D-04 -0.29703725D-05
 -0.38037529D-05 -0.40699748D-05 -0.32385319D-05 -0.74536546D-06 -0.19905422D-04
 -0.25490173D-04 -0.27274211D-04 -0.21702445D-04 -0.49949339D-05 -0.60555269D-04
  0.12583400D-04  0.13808410D-05 -0.28693910D-06  0.92362126D-05 -0.19192872D-05
 -0.22435367D-04  0.51236907D-06  0.34225964D-05  0.14367695D-04 -0.32890710D-06
 -0.21921721D-05 -0.12115079D-04  0.27788643D-06  0.18487018D-05 -0.68519626D-05
  0.35442665D-05  0.33076961D-05  0.47596637D-06  0.31740929D-05 -0.72552701D-07
MO    3     MO 0.0        OCC NO =    2.0000000  ORB. ENERGY =  -62.335352
  0.21785196D-05  0.40555165D-05  0.66712864D-05  0.89584180D-05  0.84346883D-05
  0.69313449D-06 -0.54922701D-05 -0.14593990D-04  0.19673718D-07  0.56101816D-04
  0.52497477D-04  0.40661325D-04 -0.13015017D-05 -0.12178849D-05 -0.94329895D-06
 -0.85644903D-05 -0.80142528D-05 -0.62073485D-05 -0.58528939D-06 -0.97933574D-05
  0.22750026D-06  0.14934031D-05  0.75361773D-04  0.17953920D-04 -0.41958443D-06
 -0.27423778D-05  0.10918738D-03  0.49579549D-04 -0.11437345D-05 -0.75677042D-05
 -0.31495516D-04  0.16292194D-04  0.15203322D-04  0.22159544D-05  0.14600652D-04
 -0.33624017D-06 -0.28046846D-05 -0.50592509D-05 -0.74586693D-05 -0.14710819D-04
 -0.18972419D-04 -0.26955073D-05  0.57441477D-06 -0.88550173D-05  0.14247785D-04
 -0.28044583D-05 -0.50588426D-05 -0.74580674D-05 -0.14714253D-04 -0.18974536D-04
 -0.26973172D-05 -0.37722568D-05 -0.77889316D-05 -0.14388321D-04 -0.28050268D-05
 -0.50598681D-05 -0.74595793D-05 -0.14708891D-04 -0.18965559D-04 -0.26902210D-05
 -0.90265991D-06  0.16739518D-04  0.76429201D-06 -0.12742127D+01 -0.23762673D+01
 -0.39989073D+01 -0.62963149D+01 -0.83517634D+01 -0.54407450D+01 -0.53840047D+01
 -0.90733036D+01 -0.19336821D+01  0.58200027D+01  0.24290305D+01  0.10326675D+00
 -0.11047215D-01  0.10861655D-02 -0.37898777D-03 -0.84970043D-04  0.92544466D-05
 -0.21546915D-06 -0.14132638D-05 -0.53719237D-01 -0.71845648D-01 -0.82987266D-01
  0.12445964D-02  0.16645588D-02  0.19226939D-02  0.82012534D-02  0.10968591D-01
  0.12669569D-01 -0.74600824D-01 -0.35186699D-01 -0.62185058D-02  0.17284372D-02
  0.81524569D-03  0.14407746D-03  0.11389252D-01  0.53719268D-02  0.94937460D-03
 -0.14408354D-03 -0.30099737D-03 -0.19180267D-03  0.33329911D-05  0.69627767D-05
  0.44368465D-05  0.21993927D-04  0.45946358D-04  0.29278110D-04 -0.61560163D-04
  0.14468395D-05  0.94082507D-05  0.10900330D-03 -0.25412765D-05 -0.16648578D-04
 -0.61438111D-04  0.14289991D-05  0.93820616D-05  0.52872844D-04 -0.12262473D-05
 -0.80726782D-05  0.59609057D-02  0.44434363D-02  0.20597375D-02  0.48161645D-03
 -0.30834975D-02 -0.22985307D-02 -0.10654749D-02 -0.24913380D-03 -0.28774082D-02
 -0.21449056D-02 -0.99426261D-03 -0.23248265D-03 -0.41884360D-03 -0.31221847D-03
 -0.14472765D-03 -0.33840825D-04 -0.27628614D-02 -0.20595190D-02 -0.95468200D-03
 -0.22322774D-03  0.63937794D-04  0.47661133D-04  0.22093132D-04  0.51659085D-05
  0.29288953D-04 -0.15149102D-04 -0.14139851D-04 -0.20744049D-05 -0.13582501D-04
  0.31641304D-06 -0.21280407D-04  0.11007612D-04  0.10272795D-04  0.14995025D-05
  0.98652593D-05 -0.22883339D-06  0.47362870D-06  0.88445717D-06  0.15055918D-05
  0.23339196D-05  0.31428638D-05  0.23820944D-05 -0.48348489D-05 -0.11262367D-04
 -0.27471565D-05  0.25670113D-04 -0.26595655D-04  0.22031608D-04 -0.28142663D-04
  0.74948632D-04  0.11911204D-04 -0.27105062D-06 -0.18168672D-05 -0.13779654D-03
 -0.17645732D-03 -0.18880744D-03 -0.15023654D-03 -0.34577744D-04  0.31491002D-05
  0.40326252D-05  0.43148658D-05  0.34333948D-05  0.79021421D-06  0.21023500D-04
  0.26921944D-04  0.28806191D-04  0.22921461D-04  0.52754970D-05  0.11112220D-03
 -0.23091220D-04 -0.25391953D-05  0.52764541D-06 -0.16953709D-04  0.35229848D-05
  0.35602300D-04 -0.81403744D-06 -0.54319597D-05 -0.20051237D-04  0.45904667D-06
  0.30594871D-05  0.11646368D-04 -0.26788795D-06 -0.17774631D-05  0.90564850D-05
 -0.46852761D-05 -0.43712089D-05 -0.62590822D-06 -0.41940771D-05  0.95760941D-07
MO    4     MO 0.0        OCC NO =    2.0000000  ORB. ENERGY =  -56.155133
 -0.66153892D-05 -0.12315161D-04 -0.20258324D-04 -0.27203529D-04 -0.25613148D-04
 -0.21048029D-05  0.19827614D-04  0.52685683D-04 -0.71023981D-07  0.13093073D-03
  0.12251890D-03  0.94895625D-04 -0.30312229D-05 -0.28364778D-05 -0.21969617D-05
 -0.19988412D-04 -0.18704229D-04 -0.14487148D-04  0.36045075D-04 -0.10408265D-03
  0.24102139D-05  0.15890033D-04 -0.90238472D-04 -0.32190273D-04  0.74406109D-06
  0.49136118D-05  0.33727702D-04  0.30458877D-04 -0.70381956D-06 -0.46496054D-05
 -0.98267968D-04  0.50831891D-04  0.47436077D-04  0.69052291D-05  0.45548745D-04
 -0.10533713D-05 -0.76531897D-05 -0.13805262D-04 -0.20352596D-04  0.38970013D-04
  0.11241144D-04  0.12292834D-04  0.62846167D-04 -0.23068744D-05 -0.82122497D-05
 -0.76536110D-05 -0.13806022D-04 -0.20353716D-04  0.38969045D-04  0.11240713D-04
  0.12292942D-04  0.62427410D-04 -0.22044412D-05 -0.10973205D-04 -0.76529308D-05
 -0.13804795D-04 -0.20351907D-04  0.38968914D-04  0.11242398D-04  0.12292521D-04
  0.62704166D-04  0.16058948D-06 -0.95120012D-05 -0.85877290D-03 -0.16015175D-02
 -0.26951176D-02 -0.42434866D-02 -0.56287839D-02 -0.36668637D-02 -0.36732400D-02
 -0.61902662D-02 -0.13192556D-02  0.41262960D-02  0.15301061D-02  0.14498269D-03
 -0.66072818D-04 -0.60001966D-05  0.25979461D-04 -0.82439750D-04  0.35081126D-05
 -0.81398931D-07 -0.53566919D-06  0.86682628D+02  0.11593183D+03  0.13391021D+03
 -0.20067408D+01 -0.26838726D+01 -0.31000799D+01 -0.13233318D+02 -0.17698618D+02
 -0.20443270D+02  0.11146005D+03  0.52571955D+02  0.92909826D+01 -0.25803489D+01
 -0.12170638D+01 -0.21509031D+00 -0.17015938D+02 -0.80258455D+01 -0.14183987D+01
  0.99185048D-01  0.20720228D+00  0.13203421D+00 -0.22961791D-02 -0.47968273D-02
 -0.30566522D-02 -0.15141987D-01 -0.31632331D-01 -0.20156872D-01 -0.37531753D-01
  0.86887937D-03  0.57297497D-02  0.10715840D-01 -0.24807811D-03 -0.16359249D-02
 -0.11660298D-02  0.26994831D-04  0.17801161D-03  0.10987280D-03 -0.25442083D-05
 -0.16773874D-04 -0.46911029D-02 -0.34968876D-02 -0.16209686D-02 -0.37902166D-03
  0.24266230D-02  0.18088770D-02  0.83849785D-03  0.19606108D-03  0.22644799D-02
  0.16880106D-02  0.78247073D-03  0.18296058D-03  0.33021119D-03  0.24614924D-03
  0.11410152D-03  0.26679694D-04  0.21743884D-02  0.16208537D-02  0.75134041D-03
  0.17568156D-03 -0.50374118D-04 -0.37550365D-04 -0.17406325D-04 -0.40700198D-05
 -0.17241360D-03  0.89187289D-04  0.83226315D-04  0.12107393D-04  0.79916472D-04
 -0.18491114D-05  0.63660840D-04 -0.32930841D-04 -0.30730000D-04 -0.44723403D-05
 -0.29507848D-04  0.68289462D-06  0.10213118D-06  0.19072040D-06  0.32465912D-06
  0.50327603D-06  0.67771315D-06  0.51366422D-06 -0.11365791D-05 -0.26475640D-05
 -0.64580317D-06  0.60824393D-05 -0.61366398D-05  0.36001967D-05  0.78391238D-06
  0.23085430D-04  0.40638234D-05 -0.91824829D-07 -0.61964700D-06  0.16206185D-04
  0.20753062D-04  0.22205554D-04  0.17669248D-04  0.40666720D-05 -0.38080431D-06
 -0.48764439D-06 -0.52177427D-06 -0.41518258D-06 -0.95556493D-07 -0.24763727D-05
 -0.31711544D-05 -0.33931012D-05 -0.26999348D-05 -0.62140445D-06 -0.11668874D-04
  0.24247950D-05  0.27488769D-06 -0.57121729D-07  0.17833057D-05 -0.37057136D-06
 -0.59119487D-05  0.13799832D-06  0.90303846D-06  0.55619351D-05 -0.12897749D-06
 -0.84926771D-06 -0.21724683D-05  0.50366478D-07  0.33172690D-06 -0.66509887D-05
  0.34407760D-05  0.32102127D-05  0.46757647D-06  0.30830073D-05 -0.71543548D-07
MO    5     MO 0.0        OCC NO =    2.0000000  ORB. ENERGY =  -56.152049
 -0.30904381D-09 -0.57531373D-09 -0.94638568D-09 -0.12708371D-08 -0.11965411D-08
 -0.98327745D-10  0.10237196D-08  0.27202146D-08 -0.36670393D-11 -0.55189596D-05
 -0.51643864D-05 -0.40000169D-05 -0.41886789D-04 -0.39195714D-04 -0.30358596D-04
 -0.29816777D-04 -0.27901157D-04 -0.21610524D-04 -0.29482022D-08  0.53332325D-05
  0.40468307D-04  0.28807166D-04  0.51231784D-08  0.11942995D-05  0.90654533D-05
  0.64537270D-05  0.25303142D-07 -0.82186895D-06 -0.61525093D-05 -0.43785318D-05
  0.31322792D-05  0.25441046D-04 -0.28573325D-04  0.25569572D-04  0.11575178D-04
 -0.34328895D-04 -0.12369146D-06 -0.22312175D-06 -0.32894028D-06 -0.19538042D-05
 -0.68353837D-06  0.24090793D-05 -0.41920012D-05 -0.10061940D-04 -0.30789063D-05
  0.16797902D-05  0.30301019D-05  0.44671688D-05  0.26742901D-04  0.91604503D-05
 -0.32975068D-04  0.51281054D-04  0.93425881D-05  0.22203186D-04 -0.15578928D-05
 -0.28102164D-05 -0.41429997D-05 -0.24779076D-04 -0.85094665D-05  0.30542472D-04
 -0.43220416D-04  0.30027832D-04  0.17380362D-05  0.14787005D-07  0.27576147D-07
  0.46406586D-07  0.73067582D-07  0.96920685D-07  0.63138849D-07  0.65012845D-07
  0.10956181D-06  0.23349566D-07 -0.81691307D-07 -0.10383615D-07 -0.19790881D-07
  0.14200706D-07 -0.95881075D-08  0.89729580D-08  0.18518927D-07 -0.85927156D-06
 -0.65018140D-05 -0.46283338D-05  0.93661938D+01  0.12526616D+02  0.14469208D+02
  0.71049627D+02  0.95023809D+02  0.10975983D+03  0.50577499D+02  0.67643797D+02
  0.78133805D+02  0.12043125D+02  0.56803368D+01  0.10038795D+01  0.91356163D+02
  0.43089629D+02  0.76151817D+01  0.65032941D+02  0.30673851D+02  0.54209552D+01
  0.10682334D-01  0.22315902D-01  0.14220223D-01  0.81033548D-01  0.16928293D+00
  0.10787110D+00  0.57684669D-01  0.12050602D+00  0.76789292D-01 -0.39782836D-02
 -0.30178304D-01 -0.21482777D-01  0.11033525D-02  0.83697851D-02  0.59581297D-02
 -0.10959453D-03 -0.83137504D-03 -0.59182471D-03  0.11085118D-04  0.84107414D-04
  0.59873434D-04 -0.13606465D-02 -0.10142663D-02 -0.47015919D-03 -0.10993459D-03
  0.22840492D-03  0.17025982D-03  0.78923275D-04  0.18454170D-04  0.11322415D-02
  0.84400650D-03  0.39123592D-03  0.91480419D-04 -0.10290717D-01 -0.76710061D-02
 -0.35558649D-02 -0.83144721D-03 -0.71377598D-02 -0.53206984D-02 -0.24663889D-02
 -0.57670138D-03  0.17583745D-02  0.13107446D-02  0.60759054D-03  0.14206936D-03
  0.82088899D-05  0.36140265D-06 -0.85702925D-05  0.62230729D-04  0.42751896D-04
 -0.12640584D-04  0.44033965D-06 -0.55091002D-06  0.11057037D-06  0.32895346D-05
  0.23945739D-05 -0.11685883D-07  0.16315209D-10  0.30467122D-10  0.51863506D-10
  0.80397126D-10  0.10826303D-09  0.82056614D-10 -0.18318541D-09 -0.42671476D-09
 -0.10408577D-09  0.96499405D-09 -0.93493534D-09  0.25739125D-09  0.15177325D-08
 -0.15452262D-07 -0.11822761D-06 -0.87337741D-06 -0.62227883D-06 -0.47097572D-05
 -0.60311467D-05 -0.64532624D-05 -0.51349448D-05 -0.11818350D-05 -0.35951697D-04
 -0.46038459D-04 -0.49260657D-04 -0.39197346D-04 -0.90214790D-05 -0.25610258D-04
 -0.32795581D-04 -0.35090920D-04 -0.27922302D-04 -0.64264672D-05  0.37689662D-05
 -0.78319210D-06  0.28767951D-04 -0.59779872D-05  0.20492794D-04 -0.42584075D-05
  0.12058769D-05  0.92084631D-05  0.65598530D-05 -0.63599186D-06 -0.48617392D-05
 -0.34637018D-05  0.27275567D-06  0.20951933D-05  0.14932984D-05  0.38973283D-06
 -0.54135961D-06  0.15162678D-06  0.29371773D-05  0.21520288D-05  0.49218499D-07
MO    6     MO 0.0        OCC NO =    2.0000000  ORB. ENERGY =  -56.152049
  0.84276744D-10  0.15688898D-09  0.25808090D-09  0.34655933D-09  0.32629868D-09
  0.26814134D-10 -0.27287314D-09 -0.72507503D-09  0.97745179D-12 -0.56389339D-05
 -0.52766528D-05 -0.40869716D-05  0.30301682D-04  0.28354908D-04  0.21961973D-04
 -0.41520913D-04 -0.38853344D-04 -0.30093417D-04  0.33207636D-09  0.54476676D-05
 -0.29275375D-04  0.40115063D-04 -0.27078006D-09  0.12206164D-05 -0.65581060D-05
  0.89869553D-05 -0.64624286D-08 -0.82499221D-06  0.44508309D-05 -0.60999773D-05
  0.40469774D-05 -0.14308079D-04  0.10261102D-04 -0.29580834D-04  0.31374176D-04
 -0.49002886D-04 -0.18694116D-05 -0.33721518D-05 -0.49714407D-05 -0.29746978D-04
 -0.10199838D-04  0.36675148D-04 -0.47720772D-04 -0.16611802D-04  0.37316213D-04
  0.82835555D-06  0.14942352D-05  0.22028966D-05  0.13175509D-04  0.45233352D-05
 -0.16246463D-04  0.24673906D-04  0.15015152D-04  0.54595604D-05  0.10413926D-05
  0.18785237D-05  0.27694391D-05  0.16568000D-04  0.56843959D-05 -0.20421881D-04
  0.26989912D-04 -0.19606108D-04 -0.13721816D-04 -0.56859727D-08 -0.10603717D-07
 -0.17844491D-07 -0.28096309D-07 -0.37268423D-07 -0.24278464D-07 -0.24443119D-07
 -0.41192357D-07 -0.87788224D-08  0.26967729D-07  0.10491540D-07  0.24691205D-08
 -0.26547559D-08  0.26677821D-08 -0.29694376D-08 -0.58609808D-08 -0.87444415D-06
  0.47034858D-05 -0.64456983D-05  0.95625055D+01  0.12789169D+02  0.14772477D+02
 -0.51398264D+02 -0.68741512D+02 -0.79401750D+02  0.70431779D+02  0.94197480D+02
  0.10880536D+03  0.12295544D+02  0.57993944D+01  0.10249205D+01 -0.66088287D+02
 -0.31171622D+02 -0.55089257D+01  0.90561728D+02  0.42714921D+02  0.75489600D+01
  0.10906234D-01  0.22783641D-01  0.14518276D-01 -0.58620768D-01 -0.12246157D+00
 -0.78035419D-01  0.80328880D-01  0.16781085D+00  0.10693305D+00 -0.40616715D-02
  0.21831395D-01 -0.29915875D-01  0.11264817D-02 -0.60548159D-02  0.82970023D-02
 -0.11189419D-03  0.60142787D-03 -0.82414582D-03  0.11320760D-04 -0.60844373D-04
  0.83376137D-04 -0.13895656D-02 -0.10358235D-02 -0.48015193D-03 -0.11227113D-03
 -0.16692282D-03 -0.12442923D-03 -0.57678686D-04 -0.13486672D-04  0.15564884D-02
  0.11602527D-02  0.53783061D-03  0.12575781D-03  0.75039455D-02  0.55936641D-02
  0.25929211D-02  0.60628767D-03 -0.10023017D-01 -0.74714547D-02 -0.34633636D-02
 -0.80981818D-03 -0.88204189D-03 -0.65750025D-03 -0.30478167D-03 -0.71265326D-04
  0.84444403D-05  0.23570680D-07 -0.84680110D-05 -0.46111048D-04  0.61043098D-04
  0.19046852D-05  0.43278097D-06  0.32379245D-06 -0.75657342D-06 -0.21978073D-05
  0.30856875D-05  0.12222873D-05 -0.18696006D-11 -0.34913036D-11 -0.59431687D-11
 -0.92129075D-11 -0.12406131D-10 -0.94030724D-11  0.21384852D-10  0.49814184D-10
  0.12150852D-10 -0.10633045D-09  0.87424109D-10  0.86772260D-10 -0.64872249D-09
  0.47064316D-08 -0.11683818D-06  0.63162208D-06 -0.86700339D-06 -0.48517844D-05
 -0.62130217D-05 -0.66478666D-05 -0.52897939D-05 -0.12174744D-05  0.26004821D-04
  0.33300844D-04  0.35631547D-04  0.28352485D-04  0.65254763D-05 -0.35651193D-04
 -0.45653644D-04 -0.48848910D-04 -0.38869713D-04 -0.89460726D-05  0.38822198D-05
 -0.80672622D-06 -0.20808649D-04  0.43240424D-05  0.28527447D-04 -0.59280105D-05
  0.12428609D-05 -0.66606883D-05  0.91315868D-05 -0.65642290D-06  0.35165378D-05
 -0.48213517D-05  0.28334020D-06 -0.15153607D-05  0.20781293D-05  0.38671557D-06
  0.31745884D-06 -0.70417441D-06 -0.19405283D-05  0.27415187D-05  0.11929315D-05
MO    7     MO 0.0        OCC NO =    2.0000000  ORB. ENERGY =  -10.077351
  0.43813184D+00  0.81562309D+00  0.13416923D+01  0.18016676D+01  0.16963380D+01
  0.13939938D+00  0.37089735D+00  0.98554371D+00 -0.13285818D-02  0.27961037D-02
  0.26164642D-02  0.20265526D-02 -0.64290625D-04 -0.60160185D-04 -0.46596389D-04
 -0.42674241D-03 -0.39932576D-03 -0.30929323D-03  0.79360949D-02 -0.14778673D-02
  0.34060509D-04  0.22558588D-03 -0.14901206D-02 -0.67549796D-04  0.15597701D-05
  0.10309194D-04 -0.73122351D-03  0.11834489D-03 -0.27279457D-05 -0.18063392D-04
 -0.13041756D-02  0.67461213D-03  0.62956346D-03  0.91731444D-04  0.60458753D-03
 -0.14008314D-04  0.52204376D-04  0.94169246D-04  0.13883029D-03 -0.12692555D-02
  0.73178828D-03  0.87793378D-04 -0.23561544D-03 -0.12075219D-02  0.20012230D-02
  0.52203361D-04  0.94167415D-04  0.13882759D-03 -0.12692882D-02  0.73179531D-03
  0.87790243D-04 -0.83151058D-03 -0.10608445D-02 -0.19240278D-02  0.52211352D-04
  0.94181830D-04  0.13884884D-03 -0.12691770D-02  0.73176801D-03  0.87805399D-04
 -0.43661626D-03  0.23030756D-02  0.15236365D-03  0.13884526D-05  0.25893122D-05
  0.43574304D-05  0.68608128D-05  0.91005430D-05  0.59285364D-05 -0.16407650D-05
 -0.27650717D-05 -0.58928585D-06  0.50822091D-04 -0.10627417D-03  0.12945911D-03
 -0.10259035D-03 -0.60665679D-04  0.21818579D-03 -0.10361445D-03  0.15815067D-04
 -0.36947979D-06 -0.24156509D-05 -0.35937480D-04 -0.48063816D-04 -0.55517416D-04
  0.85887208D-06  0.11486801D-05  0.13268142D-05  0.54966000D-05  0.73513104D-05
  0.84913307D-05  0.58826715D-03  0.27746582D-03  0.49036224D-04 -0.13522628D-04
 -0.63781687D-05 -0.11272066D-05 -0.89772079D-04 -0.42342470D-04 -0.74831371D-05
 -0.11129844D-03 -0.23250774D-03 -0.14815945D-03  0.25632452D-05  0.53547410D-05
  0.34121680D-05  0.16986442D-04  0.35485486D-04  0.22612193D-04  0.45602843D-03
 -0.10501809D-04 -0.69599261D-04 -0.14586721D-03  0.33330805D-05  0.22252641D-04
 -0.13514107D-03  0.31436359D-05  0.20637178D-04 -0.68645708D-04  0.15833492D-05
  0.10477328D-04  0.16942946D-02  0.12629776D-02  0.58544831D-03  0.13689197D-03
 -0.87644577D-03 -0.65332873D-03 -0.30284798D-03 -0.70813182D-04 -0.81784882D-03
 -0.60964883D-03 -0.28260033D-03 -0.66078792D-04 -0.11887332D-03 -0.88611709D-04
 -0.41075611D-04 -0.96044713D-05 -0.78520214D-03 -0.58531302D-03 -0.27131956D-03
 -0.63441076D-04  0.18155300D-04  0.13533500D-04  0.62734011D-05  0.14668729D-05
 -0.24241588D-03  0.12539922D-03  0.11701667D-03  0.17017800D-04  0.11235160D-03
 -0.25988024D-05  0.15124794D-03 -0.78238535D-04 -0.73009410D-04 -0.10623742D-04
 -0.70102690D-04  0.16222524D-05  0.65458035D-07  0.12223674D-06  0.20808089D-06
  0.32256025D-06  0.43436068D-06  0.32921826D-06  0.16685523D-05  0.38867500D-05
  0.94806981D-06 -0.90938682D-05  0.64293756D-05  0.21218054D-04 -0.31118015D-04
  0.18892064D-03  0.27482939D-04 -0.62405857D-06 -0.41913421D-05 -0.41872920D-03
 -0.53620965D-03 -0.57373858D-03 -0.45653125D-03 -0.10507311D-03  0.94767959D-05
  0.12135646D-04  0.12985011D-04  0.10332342D-04  0.23780440D-05  0.63848406D-04
  0.81761987D-04  0.87484450D-04  0.69612514D-04  0.16021693D-04  0.21631260D-03
 -0.44949812D-04 -0.48856312D-05  0.10152354D-05 -0.32979856D-04  0.68532222D-05
  0.15773685D-03 -0.35840799D-05 -0.24057214D-04 -0.10341505D-03  0.23602652D-05
  0.15776243D-04  0.22568392D-04 -0.50952150D-06 -0.34407940D-05 -0.29629490D-04