 Single Point Energy
GAUSSIAN             31 MOL ORBITALS    210 PRIMITIVES        6 NUCLEI   B3LYP
  C    1    (CENTRE  1)  -0.73990409  0.01762116  0.11366632  CHARGE =  6.0
  H    2    (CENTRE  2)  -1.02924398 -1.01773607  1.84637012  CHARGE =  1.0
  H    3    (CENTRE  3)  -1.54378683 -0.89131152 -1.52509573  CHARGE =  1.0
  H    4    (CENTRE  4)  -1.20245643  1.99828897  0.25852620  CHARGE =  1.0
  Br   5    (CENTRE  5)   3.16580241 -0.07370699 -0.48581137  CHARGE = 35.0
  Cl   6    (CENTRE  6)  -6.03459838  0.14028096  0.92597643  CHARGE = 17.0
CENTRE ASSIGNMENTS    1  1  1  1  1  1  1  1  1  1  1  1  1  1  1  1  1  1  1  1
CENTRE ASSIGNMENTS    1  1  1  1  1  1  1  1  1  1  1  1  1  1  1  1  2  2  2  2
CENTRE ASSIGNMENTS    2  2  2  2  2  3  3  3  3  3  3  3  3  3  4  4  4  4  4  4
CENTRE ASSIGNMENTS    4  4  4  5  5  5  5  5  5  5  5  5  5  5  5  5  5  5  5  5
CENTRE ASSIGNMENTS    5  5  5  5  5  5  5  5  5  5  5  5  5  5  5  5  5  5  5  5
CENTRE ASSIGNMENTS    5  5  5  5  5  5  5  5  5  5  5  5  5  5  5  5  5  5  5  5
CENTRE ASSIGNMENTS    5  5  5  5  5  5  5  5  5  5  5  5  5  5  5  5  5  5  5  5
CENTRE ASSIGNMENTS    5  5  5  5  5  5  5  5  5  5  5  5  5  5  5  5  5  6  6  6
CENTRE ASSIGNMENTS    6  6  6  6  6  6  6  6  6  6  6  6  6  6  6  6  6  6  6  6
CENTRE ASSIGNMENTS    6  6  6  6  6  6  6  6  6  6  6  6  6  6  6  6  6  6  6  6
CENTRE ASSIGNMENTS    6  6  6  6  6  6  6  6  6  6
TYPE ASSIGNMENTS      1  1  1  1  1  1  1  1  1  2  2  2  3  3  3  4  4  4  1  2
TYPE ASSIGNMENTS      3  4  1  2  3  4  1  2  3  4  5  6  7  8  9 10  1  1  1  1
TYPE ASSIGNMENTS      1  1  2  3  4  1  1  1  1  1  1  2  3  4  1  1  1  1  1  1
TYPE ASSIGNMENTS      2  3  4  1  1  1  1  1  1  1  1  1  1  1  1  1  1  1  1  2
TYPE ASSIGNMENTS      3  4  2  2  2  3  3  3  4  4  4  2  2  2  3  3  3  4  4  4
TYPE ASSIGNMENTS      2  2  2  3  3  3  4  4  4  2  3  4  2  3  4  2  3  4  2  3
TYPE ASSIGNMENTS      4  5  5  5  5  6  6  6  6  7  7  7  7  8  8  8  8  9  9  9
TYPE ASSIGNMENTS      9 10 10 10 10  5  6  7  8  9 10  5  6  7  8  9 10  1  1  1
TYPE ASSIGNMENTS      1  1  1  1  1  1  1  1  1  1  1  2  3  4  2  2  2  2  2  3
TYPE ASSIGNMENTS      3  3  3  3  4  4  4  4  4  2  2  3  3  4  4  2  3  4  2  3
TYPE ASSIGNMENTS      4  2  3  4  5  6  7  8  9 10
EXPONENTS  0.4563240D+04 0.6820240D+03 0.1549730D+03 0.4445530D+02 0.1302900D+02
EXPONENTS  0.1827730D+01 0.2096420D+02 0.4803310D+01 0.1459330D+01 0.2096420D+02
EXPONENTS  0.4803310D+01 0.1459330D+01 0.2096420D+02 0.4803310D+01 0.1459330D+01
EXPONENTS  0.2096420D+02 0.4803310D+01 0.1459330D+01 0.4834560D+00 0.4834560D+00
EXPONENTS  0.4834560D+00 0.4834560D+00 0.1455850D+00 0.1455850D+00 0.1455850D+00
EXPONENTS  0.1455850D+00 0.4380000D-01 0.4380000D-01 0.4380000D-01 0.4380000D-01
EXPONENTS  0.6260000D+00 0.6260000D+00 0.6260000D+00 0.6260000D+00 0.6260000D+00
EXPONENTS  0.6260000D+00 0.3386500D+02 0.5094790D+01 0.1158790D+01 0.3258400D+00
EXPONENTS  0.1027410D+00 0.3600000D-01 0.7500000D+00 0.7500000D+00 0.7500000D+00
EXPONENTS  0.3386500D+02 0.5094790D+01 0.1158790D+01 0.3258400D+00 0.1027410D+00
EXPONENTS  0.3600000D-01 0.7500000D+00 0.7500000D+00 0.7500000D+00 0.3386500D+02
EXPONENTS  0.5094790D+01 0.1158790D+01 0.3258400D+00 0.1027410D+00 0.3600000D-01
EXPONENTS  0.7500000D+00 0.7500000D+00 0.7500000D+00 0.4397000D+06 0.6603000D+05
EXPONENTS  0.1514000D+05 0.4317000D+04 0.1414000D+04 0.5239000D+03 0.5239000D+03
EXPONENTS  0.2077000D+03 0.8654000D+02 0.3052000D+02 0.1298000D+02 0.4412000D+01
EXPONENTS  0.1862000D+01 0.3932000D+00 0.1400000D+00 0.3500000D-01 0.3500000D-01
EXPONENTS  0.3500000D-01 0.3500000D-01 0.2957000D+04 0.7003000D+03 0.2246000D+03
EXPONENTS  0.2957000D+04 0.7003000D+03 0.2246000D+03 0.2957000D+04 0.7003000D+03
EXPONENTS  0.2246000D+03 0.8259000D+02 0.3319000D+02 0.1420000D+02 0.8259000D+02
EXPONENTS  0.3319000D+02 0.1420000D+02 0.8259000D+02 0.3319000D+02 0.1420000D+02
EXPONENTS  0.1420000D+02 0.7438000D+01 0.3526000D+01 0.1420000D+02 0.7438000D+01
EXPONENTS  0.3526000D+01 0.1420000D+02 0.7438000D+01 0.3526000D+01 0.1595000D+01
EXPONENTS  0.1595000D+01 0.1595000D+01 0.8462000D+00 0.8462000D+00 0.8462000D+00
EXPONENTS  0.3186000D+00 0.3186000D+00 0.3186000D+00 0.1096000D+00 0.1096000D+00
EXPONENTS  0.1096000D+00 0.1348000D+03 0.3639000D+02 0.1216000D+02 0.4341000D+01
EXPONENTS  0.1348000D+03 0.3639000D+02 0.1216000D+02 0.4341000D+01 0.1348000D+03
EXPONENTS  0.3639000D+02 0.1216000D+02 0.4341000D+01 0.1348000D+03 0.3639000D+02
EXPONENTS  0.1216000D+02 0.4341000D+01 0.1348000D+03 0.3639000D+02 0.1216000D+02
EXPONENTS  0.4341000D+01 0.1348000D+03 0.3639000D+02 0.1216000D+02 0.4341000D+01
EXPONENTS  0.1535000D+01 0.1535000D+01 0.1535000D+01 0.1535000D+01 0.1535000D+01
EXPONENTS  0.1535000D+01 0.4510000D+00 0.4510000D+00 0.4510000D+00 0.4510000D+00
EXPONENTS  0.4510000D+00 0.4510000D+00 0.1058190D+06 0.1587200D+05 0.3619650D+04
EXPONENTS  0.1030800D+04 0.3399080D+03 0.1245380D+03 0.1245380D+03 0.4951350D+02
EXPONENTS  0.2080560D+02 0.6583460D+01 0.2564680D+01 0.5597630D+00 0.1832730D+00
EXPONENTS  0.4830000D-01 0.4830000D-01 0.4830000D-01 0.4830000D-01 0.5897760D+03
EXPONENTS  0.1398490D+03 0.4514130D+02 0.1687330D+02 0.2771520D+01 0.5897760D+03
EXPONENTS  0.1398490D+03 0.4514130D+02 0.1687330D+02 0.2771520D+01 0.5897760D+03
EXPONENTS  0.1398490D+03 0.4514130D+02 0.1687330D+02 0.2771520D+01 0.6741100D+01
EXPONENTS  0.2771520D+01 0.6741100D+01 0.2771520D+01 0.6741100D+01 0.2771520D+01
EXPONENTS  0.1023870D+01 0.1023870D+01 0.1023870D+01 0.3813680D+00 0.3813680D+00
EXPONENTS  0.3813680D+00 0.1094370D+00 0.1094370D+00 0.1094370D+00 0.7500000D+00
EXPONENTS  0.7500000D+00 0.7500000D+00 0.7500000D+00 0.7500000D+00 0.7500000D+00
MO    1     MO 0.0        OCC NO =    2.0000000  ORB. ENERGY = -482.676933
  0.16450701D-06  0.30624506D-06  0.50377025D-06  0.67647890D-06  0.63693038D-06
  0.52340810D-07 -0.36880055D-06 -0.97997213D-06  0.13210709D-08  0.26955854D-05
  0.25224038D-05  0.19536993D-05 -0.63332940D-07 -0.59264027D-07 -0.45902280D-07
 -0.41376557D-06 -0.38718263D-06 -0.29988791D-06 -0.40276737D-06  0.23740138D-07
 -0.35094855D-09 -0.36853603D-08  0.51915887D-05  0.13589178D-05 -0.32019513D-07
 -0.20865685D-06  0.70967996D-05  0.35028466D-05 -0.81644580D-07 -0.53755637D-06
 -0.14105797D-05  0.73001192D-06  0.68056775D-06  0.10023729D-06  0.65748520D-06
 -0.15304131D-07 -0.17695009D-06 -0.31919271D-06 -0.47057419D-06 -0.87590256D-06
 -0.13797161D-05 -0.23655081D-06 -0.72086108D-08 -0.45076764D-06  0.73232423D-06
 -0.17693857D-06 -0.31917194D-06 -0.47054357D-06 -0.87604059D-06 -0.13798615D-05
 -0.23665827D-06 -0.22993451D-06 -0.39621774D-06 -0.72805880D-06 -0.17697228D-06
 -0.31923274D-06 -0.47063320D-06 -0.87588959D-06 -0.13792348D-05 -0.23621468D-06
 -0.83130934D-07  0.85471540D-06  0.44833145D-07  0.38584362D+01  0.71955615D+01
  0.12109068D+02  0.19065835D+02  0.25289927D+02  0.16475089D+02  0.96359547D+01
  0.16238831D+02  0.34607832D+01  0.81730571D-01 -0.11319653D-01  0.24940627D-02
 -0.64847338D-03  0.74992911D-04 -0.26326378D-04 -0.56240543D-05  0.61300090D-06
 -0.14420088D-07 -0.94115303D-07 -0.20812575D-02 -0.27835335D-02 -0.32151959D-02
  0.48732372D-04  0.65176072D-04  0.75283391D-04  0.31945529D-03  0.42724866D-03
  0.49350517D-03 -0.23440033D-03 -0.11055875D-03 -0.19538924D-04  0.54924643D-05
  0.25906107D-05  0.45783571D-06  0.35980658D-04  0.16970866D-04  0.29992420D-05
  0.60938362D-05  0.12730314D-04  0.81120578D-05 -0.14312509D-06 -0.29899511D-06
 -0.19052678D-06 -0.93552875D-06 -0.19543640D-05 -0.12453671D-05 -0.14695344D-04
  0.34561891D-06  0.22562070D-05  0.10528956D-04 -0.24765964D-06 -0.16165435D-05
 -0.44740510D-05  0.10513125D-06  0.68687769D-06  0.37504708D-05 -0.87886258D-07
 -0.57570902D-06 -0.47229767D-04 -0.35206473D-04 -0.16319823D-04 -0.38159693D-05
  0.24438422D-04  0.18217126D-04  0.84444777D-05  0.19745231D-05  0.22791345D-04
  0.16989346D-04  0.78753451D-05  0.18414461D-05  0.33714125D-05  0.25131511D-05
  0.11649614D-05  0.27239615D-06  0.22018858D-04  0.16413511D-04  0.76084190D-05
  0.17790324D-05 -0.51709795D-06 -0.38546018D-06 -0.17867856D-06 -0.41779369D-07
  0.66644063D-05 -0.34485077D-05 -0.32158986D-05 -0.47465394D-06 -0.31066138D-05
  0.72826414D-07 -0.19395879D-05  0.10036491D-05  0.93593885D-06  0.13806253D-06
  0.90411173D-06 -0.21184589D-07  0.15626653D-06  0.29181308D-06  0.49674693D-06
  0.77004099D-06  0.10369397D-05  0.78593551D-06 -0.56888706D-06 -0.13251738D-05
 -0.32324107D-06  0.21197390D-05 -0.20270542D-05  0.15691330D-05 -0.19964044D-05
  0.56146312D-05  0.87279077D-06 -0.20084549D-07 -0.13386103D-06 -0.11477364D-04
 -0.14697502D-04 -0.15726169D-04 -0.12513518D-04 -0.28800531D-05  0.26506797D-06
  0.33943658D-06  0.36319350D-06  0.28899779D-06  0.66514389D-07  0.17606110D-05
  0.22545755D-05  0.24123717D-05  0.19195555D-05  0.44179598D-06  0.10077568D-04
 -0.20941210D-05 -0.23271607D-06  0.48358456D-07 -0.15458763D-05  0.32123347D-06
  0.26796789D-05 -0.61914620D-07 -0.41106828D-06 -0.14374518D-05  0.33252716D-07
  0.22052126D-06  0.86170553D-06 -0.20024090D-07 -0.13222348D-06  0.68155373D-06
 -0.35272057D-06 -0.32883316D-06 -0.47630224D-07 -0.31740004D-06  0.73240261D-08
MO    2     MO 0.0        OCC NO =    2.0000000  ORB. ENERGY = -101.264169
  0.19383516D-06  0.36084213D-06  0.59358192D-06  0.79708089D-06  0.75048171D-06
  0.61672078D-07 -0.40825967D-06 -0.10848224D-05  0.14624164D-08 -0.15122196D-04
 -0.14150650D-04 -0.10960225D-04  0.34971101D-06  0.32724335D-06  0.25346262D-06
  0.23198811D-05  0.21708371D-05  0.16813973D-05 -0.38520191D-05  0.14869223D-04
 -0.33914214D-06 -0.22794281D-05  0.20815704D-04 -0.20838991D-04  0.48688019D-06
  0.31984777D-05 -0.58139924D-05  0.65880746D-05 -0.15282271D-06 -0.10108223D-05
 -0.36108092D-05  0.18707187D-05  0.17400904D-05  0.25427063D-06  0.16815115D-05
 -0.40026888D-07  0.28815634D-05  0.51979292D-05  0.76631178D-05 -0.26102207D-04
  0.25917309D-05 -0.62203147D-05  0.12701109D-04 -0.72751339D-05  0.93544831D-05
  0.28811113D-05  0.51971137D-05  0.76619155D-05 -0.26100807D-04  0.25938668D-05
 -0.62228478D-05  0.92535869D-05 -0.64256920D-05 -0.13213689D-04  0.28826155D-05
  0.51998271D-05  0.76659158D-05 -0.26105730D-04  0.25864304D-05 -0.62141516D-05
  0.11549314D-04  0.12933837D-04 -0.12777674D-05  0.79404490D-07  0.14808069D-06
  0.24919794D-06  0.39236437D-06  0.52045274D-06  0.33904824D-06 -0.27427438D-05
 -0.46221631D-05 -0.98506500D-06  0.16694359D-04 -0.23558426D-04  0.22363931D-04
 -0.15429310D-04  0.79741232D-05 -0.40318004D-05  0.17281149D-05 -0.69044213D-06
  0.15628017D-07  0.10581077D-06  0.59657517D-05  0.79787673D-05  0.92160918D-05
 -0.13920219D-06 -0.18617300D-06 -0.21504417D-06 -0.91545616D-06 -0.12243573D-05
 -0.14142272D-05 -0.18103006D-04 -0.85385790D-05 -0.15090135D-05  0.42237180D-06
  0.19921857D-06  0.35207674D-07  0.27779085D-05  0.13102460D-05  0.23155830D-06
  0.22326671D-05  0.46641477D-05  0.29721056D-05 -0.52095591D-07 -0.10883017D-06
 -0.69349164D-07 -0.34260436D-06 -0.71571679D-06 -0.45607172D-06 -0.83289721D-05
  0.19440844D-06  0.12781077D-05  0.67955916D-05 -0.15870033D-06 -0.10428365D-05
 -0.38025728D-05  0.88905295D-07  0.58358740D-06 -0.28935006D-05  0.67545796D-07
  0.44409865D-06  0.18446731D-03  0.13750741D-03  0.63741025D-04  0.14904193D-04
 -0.95453488D-04 -0.71153868D-04 -0.32983098D-04 -0.77122459D-05 -0.89013818D-04
 -0.66353546D-04 -0.30757927D-04 -0.71919472D-05 -0.13100671D-04 -0.97656295D-05
 -0.45268194D-05 -0.10584799D-05 -0.85979086D-04 -0.64091367D-04 -0.29709303D-04
 -0.69467535D-05  0.20089658D-05  0.14975428D-05  0.69418013D-06  0.16231610D-06
 -0.14925451D-04  0.77232480D-05  0.72022029D-05  0.10600215D-05  0.69566640D-05
 -0.16255621D-06  0.47135892D-05 -0.24390806D-05 -0.22745086D-05 -0.33479592D-06
 -0.21969711D-05  0.51351297D-07  0.12702094D+01  0.23719969D+01  0.40377978D+01
  0.62592632D+01  0.84287442D+01  0.63884615D+01  0.23318229D+01  0.54317821D+01
  0.13249395D+01  0.43866241D-01 -0.56583306D-02  0.64419408D-03 -0.17385569D-03
  0.42626522D-04  0.87666603D-05 -0.20356665D-06 -0.13451345D-05  0.12998133D-03
  0.16644944D-03  0.17809912D-03  0.14171579D-03  0.32616647D-04 -0.29907965D-05
 -0.38299071D-05 -0.40979596D-05 -0.32607997D-05 -0.75049052D-06 -0.19933971D-04
 -0.25526731D-04 -0.27313328D-04 -0.21733570D-04 -0.50020976D-05 -0.54569511D-04
  0.11339558D-04  0.12578501D-05 -0.26138156D-06  0.83684747D-05 -0.17389711D-05
 -0.20886772D-04  0.48218289D-06  0.32036921D-05  0.13609308D-04 -0.31494976D-06
 -0.20877773D-05 -0.12470446D-04  0.28909448D-06  0.19132700D-05 -0.78461180D-05
  0.40599824D-05  0.37861356D-05  0.55109621D-06  0.36549607D-05 -0.84481341D-07
MO    3     MO 0.0        OCC NO =    2.0000000  ORB. ENERGY =  -62.329924
  0.17732788D-05  0.33011231D-05  0.54303164D-05  0.72920036D-05  0.68656963D-05
  0.56419997D-06 -0.44837740D-05 -0.11914227D-04  0.16061210D-07  0.38429489D-04
  0.35960533D-04  0.27852823D-04 -0.90270035D-06 -0.84470512D-06 -0.65425677D-06
 -0.58987963D-05 -0.55198200D-05 -0.42753139D-05 -0.52814767D-05 -0.63742964D-06
  0.17682173D-07  0.97243464D-07  0.72443641D-04  0.18854943D-04 -0.44432664D-06
 -0.28951271D-05  0.10100290D-03  0.49608764D-04 -0.11562859D-05 -0.76130949D-05
 -0.21001323D-04  0.10868589D-04  0.10132735D-04  0.14922559D-05  0.97888915D-05
 -0.22788618D-06 -0.25086802D-05 -0.45253011D-05 -0.66714867D-05 -0.12222677D-04
 -0.19655784D-04 -0.34603550D-05  0.37937735D-09 -0.64178986D-05  0.10406640D-04
 -0.25085207D-05 -0.45250135D-05 -0.66710626D-05 -0.12224627D-04 -0.19657830D-04
 -0.34618876D-05 -0.31695316D-05 -0.56414827D-05 -0.10377513D-04 -0.25089812D-05
 -0.45258441D-05 -0.66722872D-05 -0.12222450D-04 -0.19649015D-04 -0.34555316D-05
 -0.10798516D-05  0.12161974D-04  0.62218039D-06 -0.12742133D+01 -0.23762683D+01
 -0.39989089D+01 -0.62963176D+01 -0.83517669D+01 -0.54407473D+01 -0.53840057D+01
 -0.90733054D+01 -0.19336824D+01  0.58200013D+01  0.24290409D+01  0.10325418D+00
 -0.11039455D-01  0.10831223D-02 -0.37527251D-03 -0.79501512D-04  0.87343345D-05
 -0.20546364D-06 -0.13409993D-05 -0.50233289D-01 -0.67183440D-01 -0.77602057D-01
  0.11761295D-02  0.15729893D-02  0.18169240D-02  0.77105848D-02  0.10312357D-01
  0.11911568D-01 -0.69759925D-01 -0.32903410D-01 -0.58149827D-02  0.16333670D-02
  0.77040426D-03  0.13615268D-03  0.10707855D-01  0.50505351D-02  0.89257541D-03
 -0.13523725D-03 -0.28251704D-03 -0.18002656D-03  0.31606423D-05  0.66027320D-05
  0.42074175D-05  0.20756274D-04  0.43360843D-04  0.27630558D-04 -0.53343265D-04
  0.12687003D-05  0.81955512D-05  0.97846328D-04 -0.23058081D-05 -0.15024652D-04
 -0.57751215D-04  0.13572916D-05  0.88664218D-05  0.52180519D-04 -0.12227657D-05
 -0.80098846D-05  0.56413049D-02  0.42051964D-02  0.19493023D-02  0.45579403D-03
 -0.29192221D-02 -0.21760749D-02 -0.10087110D-02 -0.23586103D-03 -0.27220828D-02
 -0.20291215D-02 -0.94059132D-03 -0.21993300D-03 -0.40051860D-03 -0.29855847D-03
 -0.13839561D-03 -0.32360242D-04 -0.26292486D-02 -0.19599201D-02 -0.90851330D-03
 -0.21243238D-03  0.61479411D-04  0.45828581D-04  0.21243659D-04  0.49672814D-05
  0.40648243D-04 -0.21032595D-04 -0.19615648D-04 -0.29044417D-05 -0.18951359D-04
  0.44551570D-06 -0.23875408D-04  0.12354399D-04  0.11521010D-04  0.16999476D-05
  0.11129343D-04 -0.26083694D-06  0.47350914D-06  0.88423388D-06  0.15052117D-05
  0.23333304D-05  0.31420703D-05  0.23814930D-05 -0.48365677D-05 -0.11266371D-04
 -0.27481330D-05  0.25666151D-04 -0.26566510D-04  0.21941789D-04 -0.28328849D-04
  0.79580725D-04  0.12396378D-04 -0.28527075D-06 -0.19012503D-05 -0.13235007D-03
 -0.16948277D-03 -0.18134474D-03 -0.14429837D-03 -0.33211043D-04  0.30569588D-05
  0.39146323D-05  0.41886146D-05  0.33329351D-05  0.76709286D-06  0.20302464D-04
  0.25998609D-04  0.27818233D-04  0.22135330D-04  0.50945648D-05  0.10660646D-03
 -0.22152848D-04 -0.24620719D-05  0.51161914D-06 -0.16353312D-04  0.33982222D-05
  0.34406961D-04 -0.79508364D-06 -0.52781399D-05 -0.19724436D-04  0.45633705D-06
  0.30259689D-05  0.12080887D-04 -0.28075604D-06 -0.18537471D-05  0.94509957D-05
 -0.48911205D-05 -0.45598752D-05 -0.66050569D-06 -0.44013437D-05  0.10156513D-06
MO    4     MO 0.0        OCC NO =    2.0000000  ORB. ENERGY =  -56.149654
 -0.48195074D-05 -0.89719603D-05 -0.14758790D-04 -0.19818578D-04 -0.18659939D-04
 -0.15334114D-05  0.14890399D-04  0.39566579D-04 -0.53338512D-07  0.14854198D-03
  0.13899869D-03  0.10765986D-03 -0.34747982D-05 -0.32515550D-05 -0.25184550D-05
 -0.22799306D-04 -0.21334533D-04 -0.16524420D-04  0.42461382D-04 -0.98874287D-04
  0.23133835D-05  0.15176093D-04 -0.81248625D-04 -0.30522915D-04  0.71285694D-06
  0.46843198D-05  0.29780323D-04  0.31633538D-04 -0.73848106D-06 -0.48549619D-05
 -0.10213087D-03  0.52849489D-04  0.49281381D-04  0.72525008D-05  0.47601140D-04
 -0.11125530D-05 -0.79455323D-05 -0.14332607D-04 -0.21130040D-04  0.35105075D-04
  0.10968478D-04  0.12087820D-04  0.62282589D-04 -0.44090957D-05 -0.47747565D-05
 -0.79457976D-05 -0.14333085D-04 -0.21130746D-04  0.35104352D-04  0.10968006D-04
  0.12087933D-04  0.60824368D-04 -0.40515700D-05 -0.14330450D-04 -0.79454707D-05
 -0.14332495D-04 -0.21129876D-04  0.35103623D-04  0.10970063D-04  0.12087598D-04
  0.61790599D-04  0.41372078D-05 -0.92743497D-05 -0.80323613D-03 -0.14979475D-02
 -0.25208246D-02 -0.39690607D-02 -0.52647709D-02 -0.34297279D-02 -0.34353906D-02
 -0.57894344D-02 -0.12338312D-02  0.38595875D-02  0.14303479D-02  0.13549318D-03
 -0.61425605D-04 -0.38869853D-05  0.19568386D-04 -0.81498741D-04  0.34305561D-05
 -0.80422333D-07 -0.52663335D-06  0.86671597D+02  0.11591708D+03  0.13389317D+03
 -0.20275122D+01 -0.27116530D+01 -0.31321684D+01 -0.13303148D+02 -0.17792011D+02
 -0.20551146D+02  0.11144578D+03  0.52565226D+02  0.92897933D+01 -0.26070557D+01
 -0.12296605D+01 -0.21731652D+00 -0.17105716D+02 -0.80681907D+01 -0.14258823D+01
  0.99163504D-01  0.20715727D+00  0.13200553D+00 -0.23197362D-02 -0.48460392D-02
 -0.30880112D-02 -0.15220520D-01 -0.31796390D-01 -0.20261414D-01 -0.37505229D-01
  0.87736173D-03  0.57566460D-02  0.10694280D-01 -0.25017193D-03 -0.16414567D-02
 -0.11567058D-02  0.27059163D-04  0.17754221D-03  0.11127115D-03 -0.26035471D-05
 -0.17079126D-04 -0.44005878D-02 -0.32803290D-02 -0.15205837D-02 -0.35554924D-03
  0.22771708D-02  0.16974708D-02  0.78685596D-03  0.18398595D-03  0.21234170D-02
  0.15828582D-02  0.73372772D-03  0.17156329D-03  0.31300322D-03  0.23332191D-03
  0.10815546D-03  0.25289362D-04  0.20511372D-02  0.15289787D-02  0.70875209D-03
  0.16572338D-03 -0.48031236D-04 -0.35803911D-04 -0.16596763D-04 -0.38807246D-05
 -0.15946187D-03  0.82516780D-04  0.76945092D-04  0.11314752D-04  0.74319961D-04
 -0.17370828D-05  0.57878341D-04 -0.29950314D-04 -0.27928027D-04 -0.41085348D-05
 -0.26975682D-04  0.63067866D-06  0.11872257D-06  0.22170325D-06  0.37740053D-06
  0.58503407D-06  0.78780879D-06  0.59710984D-06 -0.13190288D-05 -0.30725647D-05
 -0.74947086D-06  0.71138147D-05 -0.72996218D-05  0.48884046D-05 -0.77869692D-06
  0.27450496D-04  0.46518181D-05 -0.10640795D-06 -0.71325065D-06 -0.12234214D-05
 -0.15666697D-05 -0.16763198D-05 -0.13338694D-05 -0.30699719D-06  0.19245371D-07
  0.24644934D-07  0.26369816D-07  0.20982805D-07  0.48293050D-08  0.18457510D-06
  0.23636028D-06  0.25290296D-06  0.20123818D-06  0.46316044D-07  0.21481156D-05
 -0.44637895D-06 -0.42485901D-07  0.88285807D-08 -0.32707047D-06  0.67965324D-07
 -0.13606640D-05  0.33889803D-07  0.20957191D-06  0.32647677D-05 -0.76999413D-07
 -0.50136261D-06 -0.16852716D-05  0.39528703D-07  0.25873793D-06 -0.69242494D-05
  0.35833799D-05  0.33408695D-05  0.49167269D-06  0.32273035D-05 -0.75597744D-07
MO    5     MO 0.0        OCC NO =    2.0000000  ORB. ENERGY =  -56.146658
 -0.24148458D-09 -0.44954596D-09 -0.73949888D-09 -0.99302288D-09 -0.93496848D-09
 -0.76832584D-10  0.79758187D-09  0.21193244D-08 -0.28569973D-11 -0.26569084D-06
 -0.24862117D-06 -0.19256670D-06 -0.48951594D-04 -0.45806631D-04 -0.35479006D-04
  0.57035555D-05  0.53371227D-05  0.41338078D-05 -0.16518385D-08  0.26070040D-06
  0.47797372D-04 -0.55691585D-05  0.26230869D-08  0.59236614D-07  0.10947339D-04
 -0.12755596D-05  0.21844990D-07 -0.49668524D-07 -0.72455757D-05  0.84581600D-06
 -0.43597339D-06  0.28395394D-04 -0.27959421D-04  0.35023690D-04 -0.12170844D-04
  0.82070400D-05  0.11529411D-05  0.20797413D-05  0.30660869D-05  0.18408368D-04
  0.64165874D-05 -0.22347296D-04  0.28015798D-04  0.44802037D-05 -0.27903883D-04
  0.67200457D-06  0.12122004D-05  0.17871029D-05  0.10735639D-04  0.37378087D-05
 -0.13033824D-04  0.20717539D-04 -0.27042177D-05  0.13076072D-04 -0.18262100D-05
 -0.32942223D-05 -0.48565520D-05 -0.29134805D-04 -0.10180079D-04  0.35360632D-04
 -0.48516766D-04  0.36745560D-04  0.10338054D-04  0.15303364D-07  0.28539100D-07
  0.48027095D-07  0.75619086D-07  0.10030513D-06  0.65343644D-07  0.67000127D-07
  0.11291084D-06  0.24063305D-07 -0.82329125D-07 -0.13872785D-07 -0.17278461D-07
  0.12155686D-07 -0.87041319D-08  0.86185489D-08  0.16989539D-07 -0.46073329D-07
 -0.80064729D-05  0.93330032D-06  0.47981891D+00  0.64172356D+00  0.74124022D+00
  0.87123813D+02  0.11652188D+03  0.13459177D+03 -0.10152328D+02 -0.13578015D+02
 -0.15683655D+02  0.61695497D+00  0.29099691D+00  0.51427556D-01  0.11202449D+03
  0.52838184D+02  0.93380329D+01 -0.13053945D+02 -0.61571065D+01 -0.10881385D+01
  0.54723212D-03  0.11431939D-02  0.72847029D-03  0.99364528D-01  0.20757722D+00
  0.13227313D+00 -0.11578710D-01 -0.24188475D-01 -0.15413470D-01 -0.20376746D-03
 -0.36999528D-01  0.43114660D-02  0.56496535D-04  0.10258617D-01 -0.11954118D-02
 -0.56052085D-05 -0.10180321D-02  0.11862862D-03  0.56446015D-06  0.10292653D-03
 -0.11993418D-04 -0.65092824D-04 -0.48522127D-04 -0.22492242D-04 -0.52592302D-05
  0.26612792D-03  0.19837966D-03  0.91958118D-04  0.21502032D-04 -0.20103510D-03
 -0.14985754D-03 -0.69465876D-04 -0.16242802D-04 -0.11863278D-01 -0.88432398D-02
 -0.40992493D-02 -0.95850362D-03  0.13957670D-02  0.10404462D-02  0.48229477D-03
  0.11277218D-03  0.17835035D-02  0.13294765D-02  0.61627366D-03  0.14409969D-03
  0.37238609D-06  0.11593930D-06 -0.48832539D-06  0.75577558D-04 -0.93896885D-05
 -0.10526038D-04  0.26874050D-07 -0.56079560D-06  0.53392155D-06  0.27428401D-05
 -0.18565750D-06 -0.64273459D-06  0.65381779D-11  0.12209434D-10  0.20783848D-10
  0.32218448D-10  0.43385467D-10  0.32883473D-10 -0.74168989D-10 -0.17277032D-09
 -0.42142747D-10  0.37976164D-09 -0.33854639D-09 -0.16126141D-09  0.17995441D-08
 -0.15383092D-07 -0.86259057D-08 -0.10518218D-05  0.12302500D-06 -0.21101084D-06
 -0.27021294D-06 -0.28912495D-06 -0.23006048D-06 -0.52949652D-07 -0.43801535D-04
 -0.56090681D-04 -0.60016427D-04 -0.47755851D-04 -0.10991265D-04  0.50997236D-05
  0.65305238D-05  0.69875905D-05  0.55601166D-05  0.12796906D-05  0.16903866D-06
 -0.35126275D-07  0.35036872D-04 -0.72806707D-05 -0.40793129D-05  0.84768223D-06
  0.53736949D-07  0.11238089D-04 -0.13083634D-05 -0.27867060D-07 -0.59591889D-05
  0.69368441D-06  0.10896942D-07  0.25947579D-05 -0.30185727D-06  0.27381286D-07
 -0.58074235D-06  0.55336106D-06  0.35579960D-05 -0.27860763D-06 -0.76689557D-06
MO    6     MO 0.0        OCC NO =    2.0000000  ORB. ENERGY =  -56.146658
 -0.12361044D-09 -0.23011232D-09 -0.37853260D-09 -0.50830575D-09 -0.47858902D-09
 -0.39328846D-10  0.41010657D-09  0.10897300D-08 -0.14690321D-11 -0.75549367D-05
 -0.70695593D-05 -0.54756470D-05 -0.55956636D-05 -0.52361625D-05 -0.40556102D-05
 -0.48376673D-04 -0.45268647D-04 -0.35062317D-04 -0.11923617D-08  0.73774607D-05
  0.54638825D-05  0.47236430D-04  0.20463597D-08  0.16896648D-05  0.12514601D-05
  0.10819960D-04  0.10760467D-07 -0.11230099D-05 -0.82824779D-06 -0.71606396D-05
  0.45367991D-05  0.65838533D-05 -0.11120652D-04 -0.50323535D-05  0.27264300D-04
 -0.58947499D-04 -0.14429412D-05 -0.26028601D-05 -0.38373019D-05 -0.23016878D-04
 -0.80420860D-05  0.27942102D-04 -0.36673813D-04 -0.19469947D-04  0.26339970D-04
  0.17200167D-05  0.31026647D-05  0.45741456D-05  0.27449380D-04  0.95800672D-05
 -0.33326315D-04  0.51557826D-04  0.17903156D-04  0.20377691D-04 -0.27778748D-06
 -0.50108897D-06 -0.73873723D-06 -0.44286207D-05 -0.15509789D-05  0.53747811D-05
 -0.89354299D-05  0.59700808D-05 -0.86470289D-05  0.68977518D-08  0.12863552D-07
  0.21647460D-07  0.34084118D-07  0.45210968D-07  0.29452624D-07  0.30293552D-07
  0.51051702D-07  0.10880024D-07 -0.39103365D-07 -0.34708462D-08 -0.95765526D-08
  0.65799205D-08 -0.41783841D-08  0.37578042D-08  0.73939492D-08 -0.12368459D-05
 -0.91525491D-06 -0.79129989D-05  0.13448916D+02  0.17986966D+02  0.20776334D+02
  0.99593554D+01  0.13319927D+02  0.15385544D+02  0.86103406D+02  0.11515716D+03
  0.13301541D+03  0.17292724D+02  0.81563961D+01  0.14414707D+01  0.12805818D+02
  0.60400737D+01  0.10674554D+01  0.11071245D+03  0.52219336D+02  0.92286646D+01
  0.15338461D-01  0.32042775D-01  0.20418416D-01  0.11358624D-01  0.23728706D-01
  0.15120494D-01  0.98200758D-01  0.20514605D+00  0.13072393D+00 -0.57114519D-02
 -0.42295149D-02 -0.36566187D-01  0.15835760D-02  0.11726901D-02  0.10138469D-01
 -0.15714817D-03 -0.11637408D-03 -0.10061097D-02  0.15887310D-04  0.11765864D-04
  0.10172157D-03 -0.18311972D-02 -0.13650288D-02 -0.63275378D-03 -0.14795314D-03
  0.29066462D-04  0.21667005D-04  0.10043655D-04  0.23484495D-05  0.18021307D-02
  0.13433618D-02  0.62271012D-03  0.14560469D-03 -0.13098862D-02 -0.97642815D-03
 -0.45261945D-03 -0.10583337D-03 -0.11442123D-01 -0.85292987D-02 -0.39537231D-02
 -0.92447608D-03  0.50544193D-03  0.37677144D-03  0.17465093D-03  0.40837611D-04
  0.11610634D-04  0.22973164D-06 -0.11840366D-04  0.77923628D-05  0.72488774D-04
 -0.67862630D-05  0.43868936D-06 -0.12100760D-06 -0.31768176D-06  0.45508343D-06
  0.27572194D-05  0.86578790D-06  0.53648632D-11  0.10018379D-10  0.17054064D-10
  0.26436657D-10  0.35599688D-10  0.26982339D-10 -0.60255483D-10 -0.14036000D-09
 -0.34237107D-10  0.31767127D-09 -0.30721011D-09  0.58077962D-10  0.66380004D-09
 -0.68838388D-08 -0.16388111D-06 -0.12036513D-06 -0.10408148D-05 -0.67519365D-05
 -0.86462886D-05 -0.92514361D-05 -0.73614881D-05 -0.16942859D-05 -0.50092756D-05
 -0.64146994D-05 -0.68636596D-05 -0.54615032D-05 -0.12569942D-05 -0.43310033D-04
 -0.55461281D-04 -0.59342976D-04 -0.47219978D-04 -0.10867931D-04  0.54009843D-05
 -0.11223259D-05  0.40069097D-05 -0.83263682D-06  0.34643635D-04 -0.71989558D-05
  0.17321680D-05  0.12852451D-05  0.11112162D-04 -0.91826771D-06 -0.68156820D-06
 -0.58927924D-05  0.39934425D-06  0.29684679D-06  0.25665360D-05  0.56295541D-06
 -0.12300937D-06 -0.43994604D-06  0.54639711D-06  0.35450381D-05  0.83878193D-06
MO    7     MO 0.0        OCC NO =    2.0000000  ORB. ENERGY =  -10.078619
  0.43813298D+00  0.81562521D+00  0.13416958D+01  0.18016723D+01  0.16963424D+01
  0.13939975D+00  0.37090712D+00  0.98556967D+00 -0.13286168D-02  0.25953208D-02
  0.24285809D-02  0.18810297D-02 -0.60267335D-04 -0.56395376D-04 -0.43680399D-04
 -0.39823006D-03 -0.37264522D-03 -0.28862813D-03  0.79181701D-02 -0.13759687D-02
  0.32029753D-04  0.21115163D-03 -0.14752447D-02 -0.62715749D-04  0.14653693D-05
  0.96242405D-05 -0.72980347D-03  0.11150015D-03 -0.25975461D-05 -0.17110878D-04
 -0.13504746D-02  0.69879546D-03  0.65167916D-03  0.95934544D-04  0.62948844D-03
 -0.14708884D-04  0.50595680D-04  0.91267389D-04  0.13455219D-03 -0.12592153D-02
  0.72447656D-03  0.82388121D-04 -0.20560783D-03 -0.12089972D-02  0.19980312D-02
  0.50592728D-04  0.91262063D-04  0.13454434D-03 -0.12592520D-02  0.72448498D-03
  0.82384117D-04 -0.80494411D-03 -0.10617746D-02 -0.19289906D-02  0.50603236D-04
  0.91281018D-04  0.13457228D-03 -0.12591442D-02  0.72445877D-03  0.82401440D-04
 -0.40735247D-03  0.23038190D-02  0.14856131D-03  0.11168360D-05  0.20827770D-05
  0.35050064D-05  0.55186637D-05  0.73202458D-05  0.47687643D-05 -0.10665659D-05
 -0.17974123D-05 -0.38306046D-06  0.38827378D-04 -0.81209907D-04  0.96039664D-04
 -0.70685174D-04 -0.81119193D-04  0.21454485D-03 -0.89347895D-04  0.14035062D-04
 -0.33124210D-06 -0.21552413D-05 -0.12421678D-03 -0.16613108D-03 -0.19189422D-03
  0.29285198D-05  0.39166864D-05  0.45240750D-05  0.19073895D-04  0.25509973D-04
  0.29465987D-04  0.25749929D-03  0.12145375D-03  0.21464385D-04 -0.59413515D-05
 -0.28023356D-05 -0.49525363D-06 -0.39494998D-04 -0.18628462D-04 -0.32921871D-05
 -0.64747807D-04 -0.13526125D-03 -0.86191675D-04  0.15031382D-05  0.31401272D-05
  0.20009636D-05  0.99341448D-05  0.20752901D-04  0.13224241D-04  0.26416179D-03
 -0.61319245D-05 -0.40529595D-04 -0.14264767D-04  0.29655983D-06  0.21764671D-05
 -0.14752656D-03  0.34635104D-05  0.22648328D-04 -0.64365155D-04  0.15007093D-05
  0.98774768D-05  0.24132682D-02  0.17989219D-02  0.83388321D-03  0.19498206D-03
 -0.12488017D-02 -0.93089391D-03 -0.43151224D-03 -0.10089800D-03 -0.11644665D-02
 -0.86802797D-03 -0.40237097D-03 -0.94084065D-04 -0.17121323D-03 -0.12762743D-03
 -0.59161197D-04 -0.13833319D-04 -0.11246912D-02 -0.83837826D-03 -0.38862697D-03
 -0.90870383D-04  0.26280907D-04  0.19590570D-04  0.90811320D-05  0.21233883D-05
 -0.30206853D-03  0.15631204D-03  0.14575648D-03  0.21435851D-04  0.14078023D-03
 -0.32903275D-05  0.15687634D-03 -0.81178854D-04 -0.75697486D-04 -0.11135850D-04
 -0.73114771D-04  0.17093483D-05  0.44541876D-07  0.83177774D-07  0.14159168D-06
  0.21949083D-06  0.29556707D-06  0.22402137D-06  0.34336482D-05  0.79983900D-05
  0.19509956D-05 -0.21882414D-04  0.22160134D-04  0.73529631D-05 -0.24532154D-04
  0.19279227D-03  0.26729901D-04 -0.61400589D-06 -0.40990597D-05 -0.35606704D-03
 -0.45596673D-03 -0.48787951D-03 -0.38821208D-03 -0.89349088D-04  0.81154025D-05
  0.10392294D-04  0.11119644D-04  0.88480451D-05  0.20364250D-05  0.54581075D-04
  0.69894575D-04  0.74786445D-04  0.59508547D-04  0.13696211D-04  0.17321068D-03
 -0.35993221D-04 -0.39327995D-05  0.81723671D-06 -0.26545987D-04  0.55162625D-05
  0.13975010D-03 -0.32023843D-05 -0.21428105D-04 -0.99706899D-04  0.22985346D-05
  0.15292973D-04  0.24830140D-04 -0.56757075D-06 -0.38067233D-05 -0.20011540D-04