 Single Point Energy
GAUSSIAN             31 MOL ORBITALS    210 PRIMITIVES        6 NUCLEI   B3LYP
  C    1    (CENTRE  1)   0.01526291  0.13644718  1.20359357  CHARGE =  6.0
  H    2    (CENTRE  2)   1.27209258  1.72928706  1.22391724  CHARGE =  1.0
  H    3    (CENTRE  3)   0.75953815 -1.70481499  1.61947582  CHARGE =  1.0
  H    4    (CENTRE  4)  -1.97758221  0.45767736  1.41001448  CHARGE =  1.0
  Br   5    (CENTRE  5)  -0.04189680 -0.36573875 -3.22951745  CHARGE = 35.0
  Cl   6    (CENTRE  6)   0.07769189  0.67647199  5.97400835  CHARGE = 17.0
CENTRE ASSIGNMENTS    1  1  1  1  1  1  1  1  1  1  1  1  1  1  1  1  1  1  1  1
CENTRE ASSIGNMENTS    1  1  1  1  1  1  1  1  1  1  1  1  1  1  1  1  2  2  2  2
CENTRE ASSIGNMENTS    2  2  2  2  2  3  3  3  3  3  3  3  3  3  4  4  4  4  4  4
CENTRE ASSIGNMENTS    4  4  4  5  5  5  5  5  5  5  5  5  5  5  5  5  5  5  5  5
CENTRE ASSIGNMENTS    5  5  5  5  5  5  5  5  5  5  5  5  5  5  5  5  5  5  5  5
CENTRE ASSIGNMENTS    5  5  5  5  5  5  5  5  5  5  5  5  5  5  5  5  5  5  5  5
CENTRE ASSIGNMENTS    5  5  5  5  5  5  5  5  5  5  5  5  5  5  5  5  5  5  5  5
CENTRE ASSIGNMENTS    5  5  5  5  5  5  5  5  5  5  5  5  5  5  5  5  5  6  6  6
CENTRE ASSIGNMENTS    6  6  6  6  6  6  6  6  6  6  6  6  6  6  6  6  6  6  6  6
CENTRE ASSIGNMENTS    6  6  6  6  6  6  6  6  6  6  6  6  6  6  6  6  6  6  6  6
CENTRE ASSIGNMENTS    6  6  6  6  6  6  6  6  6  6
TYPE ASSIGNMENTS      1  1  1  1  1  1  1  1  1  2  2  2  3  3  3  4  4  4  1  2
TYPE ASSIGNMENTS      3  4  1  2  3  4  1  2  3  4  5  6  7  8  9 10  1  1  1  1
TYPE ASSIGNMENTS      1  1  2  3  4  1  1  1  1  1  1  2  3  4  1  1  1  1  1  1
TYPE ASSIGNMENTS      2  3  4  1  1  1  1  1  1  1  1  1  1  1  1  1  1  1  1  2
TYPE ASSIGNMENTS      3  4  2  2  2  3  3  3  4  4  4  2  2  2  3  3  3  4  4  4
TYPE ASSIGNMENTS      2  2  2  3  3  3  4  4  4  2  3  4  2  3  4  2  3  4  2  3
TYPE ASSIGNMENTS      4  5  5  5  5  6  6  6  6  7  7  7  7  8  8  8  8  9  9  9
TYPE ASSIGNMENTS      9 10 10 10 10  5  6  7  8  9 10  5  6  7  8  9 10  1  1  1
TYPE ASSIGNMENTS      1  1  1  1  1  1  1  1  1  1  1  2  3  4  2  2  2  2  2  3
TYPE ASSIGNMENTS      3  3  3  3  4  4  4  4  4  2  2  3  3  4  4  2  3  4  2  3
TYPE ASSIGNMENTS      4  2  3  4  5  6  7  8  9 10
EXPONENTS  0.4563240D+04 0.6820240D+03 0.1549730D+03 0.4445530D+02 0.1302900D+02
EXPONENTS  0.1827730D+01 0.2096420D+02 0.4803310D+01 0.1459330D+01 0.2096420D+02
EXPONENTS  0.4803310D+01 0.1459330D+01 0.2096420D+02 0.4803310D+01 0.1459330D+01
EXPONENTS  0.2096420D+02 0.4803310D+01 0.1459330D+01 0.4834560D+00 0.4834560D+00
EXPONENTS  0.4834560D+00 0.4834560D+00 0.1455850D+00 0.1455850D+00 0.1455850D+00
EXPONENTS  0.1455850D+00 0.4380000D-01 0.4380000D-01 0.4380000D-01 0.4380000D-01
EXPONENTS  0.6260000D+00 0.6260000D+00 0.6260000D+00 0.6260000D+00 0.6260000D+00
EXPONENTS  0.6260000D+00 0.3386500D+02 0.5094790D+01 0.1158790D+01 0.3258400D+00
EXPONENTS  0.1027410D+00 0.3600000D-01 0.7500000D+00 0.7500000D+00 0.7500000D+00
EXPONENTS  0.3386500D+02 0.5094790D+01 0.1158790D+01 0.3258400D+00 0.1027410D+00
EXPONENTS  0.3600000D-01 0.7500000D+00 0.7500000D+00 0.7500000D+00 0.3386500D+02
EXPONENTS  0.5094790D+01 0.1158790D+01 0.3258400D+00 0.1027410D+00 0.3600000D-01
EXPONENTS  0.7500000D+00 0.7500000D+00 0.7500000D+00 0.4397000D+06 0.6603000D+05
EXPONENTS  0.1514000D+05 0.4317000D+04 0.1414000D+04 0.5239000D+03 0.5239000D+03
EXPONENTS  0.2077000D+03 0.8654000D+02 0.3052000D+02 0.1298000D+02 0.4412000D+01
EXPONENTS  0.1862000D+01 0.3932000D+00 0.1400000D+00 0.3500000D-01 0.3500000D-01
EXPONENTS  0.3500000D-01 0.3500000D-01 0.2957000D+04 0.7003000D+03 0.2246000D+03
EXPONENTS  0.2957000D+04 0.7003000D+03 0.2246000D+03 0.2957000D+04 0.7003000D+03
EXPONENTS  0.2246000D+03 0.8259000D+02 0.3319000D+02 0.1420000D+02 0.8259000D+02
EXPONENTS  0.3319000D+02 0.1420000D+02 0.8259000D+02 0.3319000D+02 0.1420000D+02
EXPONENTS  0.1420000D+02 0.7438000D+01 0.3526000D+01 0.1420000D+02 0.7438000D+01
EXPONENTS  0.3526000D+01 0.1420000D+02 0.7438000D+01 0.3526000D+01 0.1595000D+01
EXPONENTS  0.1595000D+01 0.1595000D+01 0.8462000D+00 0.8462000D+00 0.8462000D+00
EXPONENTS  0.3186000D+00 0.3186000D+00 0.3186000D+00 0.1096000D+00 0.1096000D+00
EXPONENTS  0.1096000D+00 0.1348000D+03 0.3639000D+02 0.1216000D+02 0.4341000D+01
EXPONENTS  0.1348000D+03 0.3639000D+02 0.1216000D+02 0.4341000D+01 0.1348000D+03
EXPONENTS  0.3639000D+02 0.1216000D+02 0.4341000D+01 0.1348000D+03 0.3639000D+02
EXPONENTS  0.1216000D+02 0.4341000D+01 0.1348000D+03 0.3639000D+02 0.1216000D+02
EXPONENTS  0.4341000D+01 0.1348000D+03 0.3639000D+02 0.1216000D+02 0.4341000D+01
EXPONENTS  0.1535000D+01 0.1535000D+01 0.1535000D+01 0.1535000D+01 0.1535000D+01
EXPONENTS  0.1535000D+01 0.4510000D+00 0.4510000D+00 0.4510000D+00 0.4510000D+00
EXPONENTS  0.4510000D+00 0.4510000D+00 0.1058190D+06 0.1587200D+05 0.3619650D+04
EXPONENTS  0.1030800D+04 0.3399080D+03 0.1245380D+03 0.1245380D+03 0.4951350D+02
EXPONENTS  0.2080560D+02 0.6583460D+01 0.2564680D+01 0.5597630D+00 0.1832730D+00
EXPONENTS  0.4830000D-01 0.4830000D-01 0.4830000D-01 0.4830000D-01 0.5897760D+03
EXPONENTS  0.1398490D+03 0.4514130D+02 0.1687330D+02 0.2771520D+01 0.5897760D+03
EXPONENTS  0.1398490D+03 0.4514130D+02 0.1687330D+02 0.2771520D+01 0.5897760D+03
EXPONENTS  0.1398490D+03 0.4514130D+02 0.1687330D+02 0.2771520D+01 0.6741100D+01
EXPONENTS  0.2771520D+01 0.6741100D+01 0.2771520D+01 0.6741100D+01 0.2771520D+01
EXPONENTS  0.1023870D+01 0.1023870D+01 0.1023870D+01 0.3813680D+00 0.3813680D+00
EXPONENTS  0.3813680D+00 0.1094370D+00 0.1094370D+00 0.1094370D+00 0.7500000D+00
EXPONENTS  0.7500000D+00 0.7500000D+00 0.7500000D+00 0.7500000D+00 0.7500000D+00
MO    1     MO 0.0        OCC NO =    2.0000000  ORB. ENERGY = -482.638091
 -0.14619099D-06 -0.27214809D-06 -0.44768105D-06 -0.60116051D-06 -0.56601528D-06
 -0.46513244D-07  0.36949980D-06  0.98183015D-06 -0.13235756D-08  0.19147907D-07
  0.17917723D-07  0.13877969D-07  0.16510690D-06  0.15449938D-06  0.11966574D-06
  0.14589600D-05  0.13652271D-05  0.10574212D-05 -0.21220535D-05 -0.15286208D-07
 -0.12888262D-06 -0.11402962D-05  0.37053127D-05 -0.21703388D-07 -0.19010949D-06
 -0.16784830D-05  0.45521230D-05 -0.39653565D-07 -0.34600944D-06 -0.30553408D-05
 -0.87094744D-06 -0.83903580D-06  0.17099832D-05  0.75447923D-08  0.66515257D-07
  0.58503145D-06 -0.11474695D-06 -0.20698713D-06 -0.30515358D-06  0.86551560D-07
 -0.18395616D-05 -0.74809204D-06 -0.41833177D-06 -0.49686032D-06  0.33577220D-06
 -0.11475612D-06 -0.20700366D-06 -0.30517796D-06  0.86782814D-07 -0.18396290D-05
 -0.74818392D-06 -0.24606647D-06  0.65829024D-06  0.20221907D-06 -0.11473046D-06
 -0.20695739D-06 -0.30510974D-06  0.86043597D-07 -0.18393807D-05 -0.74784880D-06
  0.67402929D-06 -0.68969480D-07  0.27447806D-06  0.38584361D+01  0.71955612D+01
  0.12109068D+02  0.19065834D+02  0.25289926D+02  0.16475088D+02  0.96359557D+01
  0.16238833D+02  0.34607835D+01  0.81726353D-01 -0.11314160D-01  0.24893016D-02
 -0.64535855D-03  0.73075150D-04 -0.23998460D-04 -0.28014613D-05 -0.39052239D-08
 -0.34953209D-07 -0.30830242D-06  0.14920074D-04  0.19954535D-04  0.23049028D-04
  0.13185011D-03  0.17634011D-03  0.20368644D-03  0.11636237D-02  0.15562637D-02
  0.17976046D-02  0.17747543D-05  0.83709190D-06  0.14793831D-06  0.15715543D-04
  0.74124929D-05  0.13100016D-05  0.13868544D-03  0.65413258D-04  0.11560412D-04
 -0.52165400D-07 -0.10897600D-06 -0.69442092D-07 -0.46334057D-06 -0.96794048D-06
 -0.61679464D-06 -0.40882974D-05 -0.85406476D-05 -0.54423033D-05  0.13807630D-06
  0.12278720D-05  0.10833567D-04 -0.10522743D-06 -0.93518664D-06 -0.82513875D-05
  0.52414163D-07  0.46440107D-06  0.40980484D-05 -0.42651323D-07 -0.37640311D-06
 -0.33220826D-05  0.35917195D-04  0.26773745D-04  0.12410865D-04  0.29019604D-05
  0.34570792D-04  0.25770096D-04  0.11945627D-04  0.27931765D-05 -0.70487987D-04
 -0.52543841D-04 -0.24356492D-04 -0.56951369D-05 -0.30862610D-06 -0.23005907D-06
 -0.10664298D-06 -0.24935709D-07 -0.27219476D-05 -0.20290207D-05 -0.94054461D-06
 -0.21992208D-06 -0.24121256D-04 -0.17980702D-04 -0.83348840D-05 -0.19488975D-05
 -0.38620786D-05 -0.37172158D-05  0.75792944D-05  0.33218841D-07  0.29313836D-06
  0.25934659D-05  0.10235072D-05  0.98511324D-06 -0.20086205D-05 -0.88063984D-08
 -0.77719237D-07 -0.68729108D-06  0.17225770D-06  0.32167509D-06  0.54758037D-06
  0.84884133D-06  0.11430525D-05  0.86636238D-06 -0.62660831D-06 -0.14596305D-05
 -0.35603823D-06  0.23196241D-05 -0.21893038D-05  0.15792908D-05 -0.19811339D-05
  0.66316418D-05 -0.12328645D-07 -0.10555064D-06 -0.93283638D-06  0.10384979D-06
  0.13298634D-06  0.14229395D-06  0.11322515D-06  0.26059374D-07  0.89192006D-06
  0.11421610D-05  0.12221000D-05  0.97244085D-06  0.22381247D-06  0.78816924D-05
  0.10093014D-04  0.10799417D-04  0.85932362D-05  0.19777793D-05 -0.91364557D-07
  0.18985577D-07 -0.78460716D-06  0.16304156D-06 -0.69334263D-05  0.14407677D-05
 -0.24214437D-07 -0.20806639D-06 -0.18385950D-05  0.13964888D-07  0.12021283D-06
  0.10621809D-05 -0.11948292D-07 -0.10366054D-06 -0.91559883D-06 -0.44891239D-06
 -0.43204056D-06  0.88095296D-06  0.39835330D-08  0.35157087D-07  0.30098167D-06
MO    2     MO 0.0        OCC NO =    2.0000000  ORB. ENERGY = -101.298127
 -0.59749504D-06 -0.11122925D-05 -0.18297107D-05 -0.24569944D-05 -0.23133528D-05
 -0.19010360D-06  0.16782263D-05  0.44593616D-05 -0.60115310D-08  0.10898652D-06
  0.10198453D-06  0.78990959D-07  0.95244474D-06  0.89125361D-06  0.69031037D-06
  0.84104865D-05  0.78701432D-05  0.60957301D-05 -0.12074807D-04 -0.21702477D-06
 -0.18609759D-05 -0.16445483D-04  0.25324161D-04  0.28690260D-06  0.25017562D-05
  0.22092069D-04 -0.18629834D-04 -0.15574163D-06 -0.13512397D-05 -0.11934945D-04
 -0.30627763D-05 -0.29502543D-05  0.60130305D-05  0.26825588D-07  0.23879771D-06
  0.20552299D-05  0.22401330D-05  0.40408803D-05  0.59573227D-05 -0.20090671D-04
  0.24648253D-05 -0.37972063D-05  0.38953085D-05  0.36553116D-05 -0.13169365D-04
  0.22398872D-05  0.40404369D-05  0.59566690D-05 -0.20090013D-04  0.24656296D-05
 -0.37982672D-05  0.22359550D-05 -0.74547008D-05 -0.11887806D-04  0.22410493D-05
  0.40425333D-05  0.59597596D-05 -0.20092698D-04  0.24619877D-05 -0.37934677D-05
 -0.66277611D-05 -0.45910588D-06 -0.12574061D-04  0.87505893D-07  0.16318892D-06
  0.27462287D-06  0.43239614D-06  0.57355299D-06  0.37364032D-06 -0.30214213D-05
 -0.50917995D-05 -0.10851529D-05  0.18381399D-04 -0.25917681D-04  0.24523746D-04
 -0.16771557D-04  0.83359519D-05 -0.71586955D-05 -0.58281022D-05 -0.58299740D-08
 -0.55397250D-07 -0.48742593D-06 -0.12925725D-06 -0.17287235D-06 -0.19968090D-06
 -0.11519606D-05 -0.15406652D-05 -0.17795871D-05 -0.10162252D-04 -0.13591287D-04
 -0.15698985D-04  0.39488358D-06  0.18625330D-06  0.32916337D-07  0.35218670D-05
  0.16611462D-05  0.29357250D-06  0.31067805D-04  0.14653638D-04  0.25897211D-05
 -0.49197665D-07 -0.10277626D-06 -0.65491471D-07 -0.43871021D-06 -0.91648647D-06
 -0.58400692D-06 -0.38700685D-05 -0.80847569D-05 -0.51517990D-05  0.19063178D-06
  0.16990515D-05  0.14988486D-04 -0.15747906D-06 -0.14025538D-05 -0.12373285D-04
  0.65307350D-07  0.58094389D-06  0.51253192D-05  0.16942642D-07  0.14547583D-06
  0.12856266D-05 -0.11515284D-03 -0.85838350D-04 -0.39790032D-04 -0.93038718D-05
 -0.11082835D-03 -0.82614744D-04 -0.38295742D-04 -0.89544706D-05  0.22598119D-03
  0.16845309D-03  0.78085773D-04  0.18258342D-04  0.99784286D-06  0.74382174D-06
  0.34479566D-06  0.80621564D-07  0.88097371D-05  0.65670399D-05  0.30441257D-05
  0.71179021D-06  0.77294018D-04  0.57617259D-04  0.26708255D-04  0.62450360D-05
  0.94112293D-05  0.90578160D-05 -0.18469045D-04 -0.81538920D-07 -0.71988582D-06
 -0.63171618D-05 -0.29104233D-05 -0.28011538D-05  0.57115771D-05  0.25203536D-07
  0.22250886D-06  0.19536507D-05  0.12702094D+01  0.23719968D+01  0.40377976D+01
  0.62592630D+01  0.84287439D+01  0.63884613D+01  0.23318209D+01  0.54317776D+01
  0.13249384D+01  0.43879114D-01 -0.56721301D-02  0.65581178D-03 -0.18439339D-03
  0.58478057D-04 -0.15187780D-06 -0.13154533D-05 -0.11619703D-04 -0.26468957D-05
 -0.33895201D-05 -0.36267502D-05 -0.28858523D-05 -0.66419435D-06 -0.22752606D-04
 -0.29136174D-04 -0.31175394D-04 -0.24806666D-04 -0.57093871D-05 -0.20103941D-03
 -0.25744388D-03 -0.27546219D-03 -0.21918885D-03 -0.50447488D-04  0.61398504D-06
 -0.12758624D-06  0.53030598D-05 -0.11019771D-05  0.46852617D-04 -0.97359852D-05
  0.26015402D-06  0.22422312D-05  0.19810387D-04 -0.13673804D-06 -0.11817429D-05
 -0.10439617D-04  0.18576142D-06  0.16075103D-05  0.14200042D-04  0.63273987D-05
  0.60904937D-05 -0.12417892D-04 -0.55579243D-07 -0.49134121D-06 -0.42445547D-05
MO    3     MO 0.0        OCC NO =    2.0000000  ORB. ENERGY =  -62.291054
 -0.14587280D-05 -0.27155576D-05 -0.44670668D-05 -0.59985210D-05 -0.56478336D-05
 -0.46412009D-06  0.43980647D-05  0.11686481D-04 -0.15754193D-07  0.26421357D-06
  0.24723880D-06  0.19149601D-06  0.22781096D-05  0.21317493D-05  0.16511222D-05
  0.20130494D-04  0.18837183D-04  0.14590126D-04 -0.29187202D-04 -0.21273775D-06
 -0.17942332D-05 -0.15874340D-04  0.51737096D-04 -0.30247048D-06 -0.26494969D-05
 -0.23392497D-04  0.65105286D-04 -0.56239434D-06 -0.49073563D-05 -0.43333045D-04
 -0.11938610D-04 -0.11501263D-04  0.23439873D-04  0.10342154D-06  0.91168372D-06
  0.80194578D-05 -0.16507514D-05 -0.29777201D-05 -0.43899443D-05  0.14083072D-05
 -0.26207011D-04 -0.10734249D-04 -0.57863365D-05 -0.68892533D-05  0.44717663D-05
 -0.16508801D-05 -0.29779522D-05 -0.43902865D-05  0.14115275D-05 -0.26207951D-04
 -0.10735569D-04 -0.34044914D-05  0.90825932D-05  0.26251017D-05 -0.16505212D-05
 -0.29773048D-05 -0.43893321D-05  0.14012623D-05 -0.26204501D-04 -0.10730757D-04
  0.93173515D-05 -0.97294317D-06  0.36244558D-05 -0.12742144D+01 -0.23762704D+01
 -0.39989124D+01 -0.62963231D+01 -0.83517742D+01 -0.54407520D+01 -0.53840054D+01
 -0.90733049D+01 -0.19336823D+01  0.58199748D+01  0.24290975D+01  0.10319462D+00
 -0.10999346D-01  0.10570672D-02 -0.34300957D-03 -0.39564557D-04 -0.55727188D-07
 -0.49877820D-06 -0.43994386D-05  0.36648163D-03  0.49014303D-03  0.56615302D-03
  0.32419684D-02  0.43359015D-02  0.50083008D-02  0.28611105D-01  0.38265312D-01
  0.44199387D-01  0.50982244D-03  0.24046609D-03  0.42497303D-04  0.45102599D-02
  0.21273379D-02  0.37596204D-03  0.39803938D-01  0.18774179D-01  0.33179395D-02
  0.89030184D-06  0.18598829D-05  0.11851615D-05  0.78515594D-05  0.16402281D-04
  0.10451922D-04  0.69302977D-04  0.14477721D-03  0.92255474D-04  0.80297324D-06
  0.71804294D-05  0.63337418D-04 -0.11046186D-05 -0.98260342D-05 -0.86694396D-04
  0.69894334D-06  0.61923932D-05  0.54644209D-04 -0.59726013D-06 -0.52707400D-05
 -0.46518903D-04 -0.18455789D-02 -0.13757494D-02 -0.63772326D-03 -0.14911512D-03
 -0.17761736D-02 -0.13240126D-02 -0.61374088D-03 -0.14350746D-03  0.36217526D-02
  0.26997620D-02  0.12514641D-02  0.29262258D-03  0.15919650D-04  0.11866981D-04
  0.55008925D-05  0.12862417D-05  0.14082344D-03  0.10497398D-03  0.48660279D-04
  0.11377950D-04  0.12389380D-02  0.92354124D-03  0.42810393D-03  0.10010105D-03
 -0.34059931D-04 -0.32784241D-04  0.66844173D-04  0.29283797D-06  0.25799814D-05
  0.22875138D-04  0.13136577D-04  0.12643896D-04 -0.25780473D-04 -0.11302570D-06
 -0.99720788D-06 -0.88214666D-05  0.51671125D-06  0.96490978D-06  0.16425445D-05
  0.25462192D-05  0.34287471D-05  0.25987761D-05 -0.52966658D-05 -0.12338130D-04
 -0.30095603D-05  0.27938248D-04 -0.28551161D-04  0.22032594D-04 -0.28139347D-04
  0.94059361D-04 -0.17508553D-06 -0.14990011D-05 -0.13247878D-04  0.11960907D-05
  0.15316711D-05  0.16388716D-05  0.13040715D-05  0.30013903D-06  0.10274403D-04
  0.13157033D-04  0.14077884D-04  0.11201955D-04  0.25781900D-05  0.90791670D-04
  0.11626457D-03  0.12440184D-03  0.98988164D-04  0.22782656D-04 -0.96771139D-06
  0.20109066D-06 -0.83118542D-05  0.17272053D-05 -0.73449521D-04  0.15262828D-04
 -0.31138805D-06 -0.26761711D-05 -0.23647956D-04  0.19289385D-06  0.16607796D-05
  0.14674244D-04 -0.16801756D-06 -0.14578379D-05 -0.12876532D-04 -0.62317186D-05
 -0.59975015D-05  0.12229220D-04  0.55297198D-07  0.48802436D-06  0.41781769D-05
MO    4     MO 0.0        OCC NO =    2.0000000  ORB. ENERGY =  -56.110229
 -0.14340877D-05 -0.26696874D-05 -0.43916107D-05 -0.58971961D-05 -0.55524324D-05
 -0.45628034D-06  0.32157330D-05  0.85448048D-05 -0.11518994D-07  0.16208537D-05
  0.15167197D-05  0.11747580D-05  0.14312175D-04  0.13392669D-04  0.10373140D-04
  0.12630898D-03  0.11819409D-03  0.91545888D-04 -0.46761609D-04 -0.29628051D-06
 -0.26747113D-05 -0.23577718D-04  0.62448587D-04 -0.35398065D-06 -0.31129831D-05
 -0.27477750D-04 -0.71518474D-05  0.52191295D-06  0.45660120D-05  0.40314297D-04
 -0.33596118D-04 -0.32324453D-04  0.65920571D-04  0.29004318D-06  0.25619718D-05
  0.22550370D-04  0.93869923D-05  0.16932795D-04  0.24963403D-04 -0.43819498D-04
 -0.46393669D-05 -0.10346659D-04  0.78419170D-05  0.16336360D-04  0.66107350D-04
  0.93863841D-05  0.16931698D-04  0.24961785D-04 -0.43823478D-04 -0.46378863D-05
 -0.10346846D-04  0.49923875D-05 -0.27696125D-05  0.68310872D-04  0.93882962D-05
  0.16935147D-04  0.24966871D-04 -0.43811000D-04 -0.46432031D-05 -0.10345944D-04
 -0.10226549D-04  0.92609654D-05  0.67135654D-04  0.45527694D-03  0.84904168D-03
  0.14288119D-02  0.22496769D-02  0.29840898D-02  0.19439813D-02  0.19492546D-02
  0.32849487D-02  0.70008088D-03 -0.22035491D-02 -0.78694102D-03 -0.99966902D-04
  0.52272827D-04 -0.12979783D-04  0.77338593D-05  0.77366964D-04  0.43721278D-07
  0.38530715D-06  0.34009952D-05  0.11204673D+01  0.14985452D+01  0.17309353D+01
  0.98733640D+01  0.13204920D+02  0.15252701D+02  0.87146284D+02  0.11655194D+03
  0.13462648D+03  0.14407364D+01  0.67954689D+00  0.12009556D+00  0.12695520D+02
  0.59880495D+01  0.10582613D+01  0.11205576D+03  0.52852935D+02  0.93406398D+01
  0.12809083D-02  0.26758784D-02  0.17051332D-02  0.11287120D-01  0.23579330D-01
  0.15025308D-01  0.99624672D-01  0.20812068D+00  0.13261943D+00 -0.48212507D-03
 -0.42483195D-02 -0.37497416D-01  0.13614631D-03  0.11996331D-02  0.10588474D-01
 -0.14300398D-04 -0.12599460D-03 -0.11120879D-02  0.15082453D-05  0.13292903D-04
  0.11732796D-03 -0.14253313D-02 -0.10624843D-02 -0.49251045D-03 -0.11516085D-03
 -0.13717428D-02 -0.10225378D-02 -0.47399342D-03 -0.11083113D-03  0.27970740D-02
  0.20850222D-02  0.96650387D-03  0.22599198D-03  0.12229973D-04  0.91165852D-05
  0.42259575D-05  0.98813106D-06  0.10803234D-03  0.80530516D-04  0.37329606D-04
  0.87285647D-05  0.95707908D-03  0.71343520D-03  0.33071010D-03  0.77328020D-04
 -0.36570284D-04 -0.35200440D-04  0.71770724D-04  0.31832693D-06  0.28102246D-05
  0.24544536D-04  0.13935169D-04  0.13412597D-04 -0.27347765D-04 -0.12090855D-06
 -0.10674148D-05 -0.93536900D-05 -0.20362002D-06 -0.38024128D-06 -0.64727629D-06
 -0.10033867D-05 -0.13511638D-05 -0.10240978D-05  0.22611282D-05  0.52671048D-05
  0.12847708D-05 -0.12302510D-04  0.12897649D-04 -0.10687303D-04  0.97966021D-05
 -0.61604659D-04  0.12043131D-06  0.10245721D-05  0.90575243D-05 -0.50289651D-06
 -0.64399131D-06 -0.68906379D-06 -0.54829702D-06 -0.12619350D-06 -0.43072360D-05
 -0.55156925D-05 -0.59017319D-05 -0.46960848D-05 -0.10808291D-05 -0.38064157D-04
 -0.48743600D-04 -0.52155129D-04 -0.41500515D-04 -0.95515657D-05  0.39782197D-06
 -0.82667502D-07  0.34070905D-05 -0.70799423D-06  0.30109387D-04 -0.62567381D-05
  0.13159635D-06  0.11268848D-05  0.99586548D-05 -0.62616020D-07 -0.53516384D-06
 -0.47297145D-05  0.20658876D-07  0.17952337D-06  0.15853061D-05 -0.27907408D-05
 -0.26856709D-05  0.54764117D-05  0.24120815D-07  0.21258091D-06  0.18733875D-05
MO    5     MO 0.0        OCC NO =    2.0000000  ORB. ENERGY =  -56.108086
  0.14906780D-09  0.27750356D-09  0.45649074D-09  0.61299045D-09  0.57715362D-09
  0.47428555D-10 -0.45251693D-09 -0.12024222D-08  0.16209492D-11  0.34422209D-05
  0.32210707D-05  0.24948437D-05 -0.20570150D-04 -0.19248592D-04 -0.14908778D-04
  0.22813468D-05  0.21347785D-05  0.16534685D-05  0.21738817D-08 -0.43553111D-05
  0.26026044D-04 -0.28897576D-05 -0.25921882D-08 -0.17922779D-05  0.10714941D-04
 -0.11894910D-05  0.91662889D-08  0.90741501D-06 -0.54228135D-05  0.60723832D-06
  0.12593796D-04 -0.14015478D-04  0.14216822D-05  0.36044145D-04 -0.20775950D-05
 -0.11223974D-04 -0.92166123D-06 -0.16625454D-05 -0.24510301D-05 -0.14712635D-04
 -0.87358403D-05  0.20566225D-04  0.19722206D-04  0.14919748D-04  0.21129664D-04
  0.13431857D-05  0.24229154D-05  0.35720159D-05  0.21450063D-04  0.12730317D-04
 -0.29983879D-04 -0.14092625D-04  0.24887380D-04 -0.36275612D-04 -0.42166120D-06
 -0.76061664D-06 -0.11213494D-05 -0.67331471D-05 -0.39977237D-05  0.94101008D-05
 -0.11155295D-04 -0.67827795D-05  0.11472325D-04  0.10269892D-07  0.19152226D-07
  0.32230370D-07  0.50747003D-07  0.67313494D-07  0.43851285D-07  0.44171610D-07
  0.74439465D-07  0.15864371D-07 -0.52005081D-07 -0.13523610D-07 -0.67690969D-08
  0.46141882D-08 -0.38877157D-08  0.41302310D-08  0.74761461D-08  0.13631691D-05
 -0.81477007D-05  0.90654074D-06 -0.14388417D+02 -0.19243481D+02 -0.22227706D+02
  0.85996532D+02  0.11501423D+03  0.13285031D+03 -0.95581048D+01 -0.12783283D+02
 -0.14765679D+02 -0.18500817D+02 -0.87262130D+01 -0.15421738D+01  0.11057548D+03
  0.52154734D+02  0.92172475D+01 -0.12289938D+02 -0.57967501D+01 -0.10244531D+01
 -0.16410594D-01 -0.34282510D-01 -0.21845629D-01  0.98082656D-01  0.20489933D+00
  0.13056672D+00 -0.10901421D-01 -0.22773588D-01 -0.14511870D-01  0.61073953D-02
 -0.36502618D-01  0.40570974D-02 -0.16913650D-02  0.10108936D-01 -0.11235639D-02
  0.16722948D-03 -0.99949732D-03  0.11108991D-03 -0.16867578D-04  0.10081496D-03
 -0.11203755D-04 -0.17396838D-04 -0.12968120D-04 -0.60113215D-05 -0.14055924D-05
  0.77228027D-03  0.57568067D-03  0.26685453D-03  0.62397042D-04 -0.75488343D-03
 -0.56271255D-03 -0.26084320D-03 -0.60991450D-04 -0.49653180D-04 -0.37012956D-04
 -0.17157211D-04 -0.40117709D-05 -0.11450912D-02 -0.85358504D-03 -0.39567601D-03
 -0.92518620D-04  0.67059036D-02  0.49987799D-02  0.23171649D-02  0.54180920D-03
  0.60978126D-06 -0.65725650D-05  0.59627838D-05  0.17368511D-05  0.88919354D-05
 -0.52949717D-04 -0.14188094D-06  0.26561306D-06 -0.12373212D-06 -0.40405633D-06
 -0.14276063D-06  0.10939642D-05 -0.18323282D-10 -0.34217011D-10 -0.58246859D-10
 -0.90292392D-10 -0.12158803D-09 -0.92156130D-10  0.20339012D-09  0.47377991D-09
  0.11556607D-09 -0.11120615D-08  0.11814676D-08 -0.11445227D-08  0.20133730D-08
 -0.10737114D-07  0.14203298D-06 -0.84982427D-06  0.96206709D-07  0.69645097D-05
  0.89185023D-05  0.95427019D-05  0.75932520D-05  0.17476276D-05 -0.41650533D-04
 -0.53336185D-04 -0.57069146D-04 -0.45410662D-04 -0.10451507D-04  0.46083177D-05
  0.59012470D-05  0.63142711D-05  0.50243476D-05  0.11563805D-05 -0.55810498D-05
  0.11597435D-05  0.33376901D-04 -0.69357282D-05 -0.36929946D-05  0.76740519D-06
 -0.17751293D-05  0.10616041D-04 -0.11744305D-05  0.92748774D-06 -0.55470555D-05
  0.61338757D-06 -0.39789601D-06  0.23804101D-05 -0.26266517D-06 -0.12424652D-06
 -0.20330743D-06  0.32755395D-06 -0.35815362D-06  0.54360046D-06 -0.29383193D-05
MO    6     MO 0.0        OCC NO =    2.0000000  ORB. ENERGY =  -56.108086
 -0.19215418D-09 -0.35771283D-09 -0.58843425D-09 -0.79016844D-09 -0.74397337D-09
 -0.61137244D-10  0.57313775D-09  0.15229343D-08 -0.20530219D-11 -0.20698599D-04
 -0.19368789D-04 -0.15001876D-04 -0.33893484D-05 -0.31715951D-05 -0.24565230D-05
  0.65786414D-06  0.61559875D-06  0.47680503D-06 -0.29798883D-08  0.26189198D-04
  0.42890110D-05 -0.82709354D-06  0.34257961D-08  0.10777339D-04  0.17657573D-05
 -0.34077531D-06 -0.16776356D-07 -0.54561402D-05 -0.89471650D-06  0.16388431D-06
 -0.18292173D-04  0.17591971D-04  0.70020114D-06  0.23425272D-04 -0.16193928D-04
 -0.65836239D-05 -0.10183469D-05 -0.18369525D-05 -0.27081521D-05 -0.16274910D-04
 -0.96533295D-05  0.22746404D-04  0.10029050D-04  0.25809081D-04  0.22468233D-04
 -0.28807363D-06 -0.51964374D-06 -0.76609184D-06 -0.46103295D-05 -0.27306127D-05
  0.64427124D-05 -0.65693293D-05 -0.91019065D-05  0.83440351D-05  0.13068664D-05
  0.23574006D-05  0.34754298D-05  0.20877740D-04  0.12391572D-04 -0.29176098D-04
  0.29766939D-04 -0.11263513D-04 -0.31850962D-04 -0.20547372D-07 -0.38318602D-07
 -0.64484552D-07 -0.10153150D-06 -0.13467672D-06 -0.87734969D-07 -0.88278582D-07
 -0.14877000D-06 -0.31705528D-07  0.10407725D-06  0.27592061D-07  0.12198849D-07
 -0.82461148D-08  0.65435080D-08 -0.67176963D-08 -0.12253736D-07 -0.81968613D-05
 -0.13430827D-05  0.25598481D-06  0.86518815D+02  0.11571274D+03  0.13365715D+03
  0.14173684D+02  0.18956291D+02  0.21895979D+02 -0.27182278D+01 -0.36354357D+01
 -0.41992088D+01  0.11124704D+03  0.52471485D+02  0.92732267D+01  0.18224711D+02
  0.85959829D+01  0.15191584D+01 -0.34951333D+01 -0.16485368D+01 -0.29134405D+00
  0.98678341D-01  0.20614375D+00  0.13135969D+00  0.16165682D-01  0.33770879D-01
  0.21519605D-01 -0.31002509D-02 -0.64765714D-02 -0.41270250D-02 -0.36724309D-01
 -0.60162511D-02  0.11537885D-02  0.10170330D-01  0.16661251D-02 -0.31952391D-03
 -0.10055665D-02 -0.16473431D-03  0.31592199D-04  0.10142646D-03  0.16615763D-04
 -0.31888214D-05  0.91646797D-04  0.68316247D-04  0.31667729D-04  0.74046810D-05
  0.12306637D-03  0.91737331D-04  0.42524481D-04  0.99432522D-05 -0.21471317D-03
 -0.16005358D-03 -0.74192211D-04 -0.17347933D-04  0.78309243D-03  0.58374038D-03
  0.27059057D-03  0.63270620D-04  0.68308961D-02  0.50919530D-02  0.23603549D-02
  0.55190807D-03  0.10960224D-02  0.81700765D-03  0.37872070D-03  0.88554060D-04
 -0.14038950D-05 -0.30982026D-06  0.17137153D-05 -0.52571070D-05 -0.54113725D-04
 -0.88294962D-05  0.21543276D-06 -0.17491341D-06 -0.40519353D-07 -0.14483543D-06
  0.11665751D-05  0.23039866D-06  0.28316210D-10  0.52877865D-10  0.90012817D-10
  0.13953495D-09  0.18789822D-09  0.14241511D-09 -0.31422979D-09 -0.73197144D-09
 -0.17854506D-09  0.17196016D-08 -0.18305903D-08  0.17999413D-08 -0.32225038D-08
  0.18044271D-07 -0.85418221D-06 -0.14046665D-06  0.23937986D-07 -0.41882629D-04
 -0.53633398D-04 -0.57387161D-04 -0.45663711D-04 -0.10509748D-04 -0.68610402D-05
 -0.87860030D-05 -0.94009290D-05 -0.74804415D-05 -0.17216637D-05  0.13502659D-05
  0.17291022D-05  0.18501209D-05  0.14721652D-05  0.33882671D-06  0.33562872D-04
 -0.69743730D-05  0.54981529D-05 -0.11425175D-05 -0.10818908D-05  0.22481716D-06
  0.10675167D-04  0.17487391D-05 -0.34441690D-06 -0.55777499D-05 -0.91369993D-06
  0.18040868D-06  0.23930312D-05  0.39200217D-06 -0.78338481D-07  0.14980087D-06
 -0.24267377D-06  0.92872903D-07 -0.60388587D-06 -0.29414055D-05 -0.42933027D-06
MO    7     MO 0.0        OCC NO =    2.0000000  ORB. ENERGY =  -10.088596
  0.43812751D+00  0.81561502D+00  0.13416790D+01  0.18016498D+01  0.16963212D+01
  0.13939800D+00  0.37094870D+00  0.98568016D+00 -0.13287657D-02 -0.13629133D-04
 -0.12753510D-04 -0.98780866D-05 -0.11639188D-03 -0.10891413D-03 -0.84358200D-04
 -0.10288591D-02 -0.96275865D-03 -0.74569379D-03  0.78488880D-02  0.72928299D-05
  0.62789923D-04  0.55484123D-03 -0.13632488D-02  0.26996541D-06  0.24829838D-05
  0.21869740D-04 -0.69111690D-03 -0.57840862D-06 -0.50496844D-05 -0.44588071D-04
  0.82590025D-03  0.79513653D-03 -0.16210368D-02 -0.71727532D-05 -0.63371795D-04
 -0.55439514D-03  0.40448724D-04  0.72963728D-04  0.10756777D-03 -0.12275755D-02
  0.67721788D-03  0.43483817D-04  0.14594692D-02  0.18458090D-02 -0.15465146D-04
  0.40442696D-04  0.72952854D-04  0.10755174D-03 -0.12275972D-02  0.67722434D-03
  0.43476357D-04  0.86409693D-03 -0.21432944D-02  0.44402749D-03  0.40464003D-04
  0.72991288D-04  0.10760840D-03 -0.12275167D-02  0.67720161D-03  0.43503424D-04
 -0.23152709D-02  0.36868487D-03  0.20069574D-03  0.12798283D-07  0.23867398D-07
  0.40165308D-07  0.63240634D-07  0.83885704D-07  0.54647229D-07  0.80902777D-05
  0.13634005D-04  0.29056485D-05 -0.61456606D-04  0.10665382D-03 -0.14217021D-03
  0.13187948D-03 -0.15940517D-03  0.17516839D-03  0.24327397D-04  0.13673709D-07
  0.10695870D-06  0.94910376D-06  0.47996171D-05  0.64191455D-05  0.74146083D-05
  0.42131531D-04  0.56347917D-04  0.65086192D-04  0.37195044D-03  0.49745718D-03
  0.57460142D-03  0.10144996D-04  0.47850534D-05  0.84565712D-06  0.88917249D-04
  0.41939275D-04  0.74118809D-05  0.78506637D-03  0.37028939D-03  0.65440829D-04
 -0.10897526D-05 -0.22765450D-05 -0.14506685D-05 -0.95407579D-05 -0.19931097D-04
 -0.12700568D-04 -0.84243034D-04 -0.17598770D-03 -0.11214354D-03  0.36545387D-05
  0.31959449D-04  0.28221652D-03 -0.34004643D-05 -0.29771759D-04 -0.26288002D-03
  0.11168289D-05  0.97960982D-05  0.86490886D-04  0.65578163D-06  0.57761681D-05
  0.50980102D-04 -0.18313148D-02 -0.13651165D-02 -0.63279443D-03 -0.14796264D-03
 -0.17626321D-02 -0.13139184D-02 -0.60906173D-03 -0.14241336D-03  0.35939469D-02
  0.26790349D-02  0.12418562D-02  0.29037601D-03  0.15870284D-04  0.11830182D-04
  0.54838345D-05  0.12822531D-05  0.14008698D-03  0.10442500D-03  0.48405800D-04
  0.11318447D-04  0.12293193D-02  0.91637113D-03  0.42478026D-03  0.99323898D-04
  0.18676000D-03  0.17975583D-03 -0.36651582D-03 -0.16182203D-05 -0.14284102D-04
 -0.12536864D-03 -0.62714688D-04 -0.60363249D-04  0.12307794D-03  0.54313283D-06
  0.47942268D-05  0.42100624D-04 -0.59280110D-06 -0.11070004D-05 -0.18844223D-05
 -0.29211704D-05 -0.39336575D-05 -0.29814666D-05  0.86487003D-05  0.20146408D-04
  0.49141831D-05 -0.70791407D-04  0.88147293D-04 -0.67331157D-04  0.28921790D-04
  0.16929871D-03 -0.22487766D-06 -0.19286200D-05 -0.17042153D-04  0.13634527D-06
  0.17459888D-06  0.18681893D-06  0.14865425D-06  0.34213572D-07 -0.20138019D-07
 -0.25788027D-07 -0.27592913D-07 -0.21956040D-07 -0.50533001D-08  0.25654170D-06
  0.32851813D-06  0.35151088D-06  0.27970178D-06  0.64374863D-07  0.84579929D-06
 -0.17575730D-06  0.80202668D-05 -0.16666134D-05  0.70593864D-04 -0.14669422D-04
 -0.22513640D-06 -0.16165279D-05 -0.14399623D-04  0.56930872D-06  0.48121707D-05
  0.42549725D-04 -0.51485008D-06 -0.43987348D-05 -0.38876860D-04 -0.27023571D-04