 Single Point Energy
GAUSSIAN             31 MOL ORBITALS    210 PRIMITIVES        6 NUCLEI   B3LYP
  C    1    (CENTRE  1)  -2.30128736  0.02602828  0.24458577  CHARGE =  6.0
  H    2    (CENTRE  2)  -1.53656564 -1.01452771  1.82749073  CHARGE =  1.0
  H    3    (CENTRE  3)  -1.89192998 -0.89680399 -1.53135077  CHARGE =  1.0
  H    4    (CENTRE  4)  -1.67121200  1.96925769  0.24602436  CHARGE =  1.0
  Br   5    (CENTRE  5)   3.35901392 -0.03771412 -0.35685830  CHARGE = 35.0
  Cl   6    (CENTRE  6)  -5.80341502  0.06505285  0.61649187  CHARGE = 17.0
CENTRE ASSIGNMENTS    1  1  1  1  1  1  1  1  1  1  1  1  1  1  1  1  1  1  1  1
CENTRE ASSIGNMENTS    1  1  1  1  1  1  1  1  1  1  1  1  1  1  1  1  2  2  2  2
CENTRE ASSIGNMENTS    2  2  2  2  2  3  3  3  3  3  3  3  3  3  4  4  4  4  4  4
CENTRE ASSIGNMENTS    4  4  4  5  5  5  5  5  5  5  5  5  5  5  5  5  5  5  5  5
CENTRE ASSIGNMENTS    5  5  5  5  5  5  5  5  5  5  5  5  5  5  5  5  5  5  5  5
CENTRE ASSIGNMENTS    5  5  5  5  5  5  5  5  5  5  5  5  5  5  5  5  5  5  5  5
CENTRE ASSIGNMENTS    5  5  5  5  5  5  5  5  5  5  5  5  5  5  5  5  5  5  5  5
CENTRE ASSIGNMENTS    5  5  5  5  5  5  5  5  5  5  5  5  5  5  5  5  5  6  6  6
CENTRE ASSIGNMENTS    6  6  6  6  6  6  6  6  6  6  6  6  6  6  6  6  6  6  6  6
CENTRE ASSIGNMENTS    6  6  6  6  6  6  6  6  6  6  6  6  6  6  6  6  6  6  6  6
CENTRE ASSIGNMENTS    6  6  6  6  6  6  6  6  6  6
TYPE ASSIGNMENTS      1  1  1  1  1  1  1  1  1  2  2  2  3  3  3  4  4  4  1  2
TYPE ASSIGNMENTS      3  4  1  2  3  4  1  2  3  4  5  6  7  8  9 10  1  1  1  1
TYPE ASSIGNMENTS      1  1  2  3  4  1  1  1  1  1  1  2  3  4  1  1  1  1  1  1
TYPE ASSIGNMENTS      2  3  4  1  1  1  1  1  1  1  1  1  1  1  1  1  1  1  1  2
TYPE ASSIGNMENTS      3  4  2  2  2  3  3  3  4  4  4  2  2  2  3  3  3  4  4  4
TYPE ASSIGNMENTS      2  2  2  3  3  3  4  4  4  2  3  4  2  3  4  2  3  4  2  3
TYPE ASSIGNMENTS      4  5  5  5  5  6  6  6  6  7  7  7  7  8  8  8  8  9  9  9
TYPE ASSIGNMENTS      9 10 10 10 10  5  6  7  8  9 10  5  6  7  8  9 10  1  1  1
TYPE ASSIGNMENTS      1  1  1  1  1  1  1  1  1  1  1  2  3  4  2  2  2  2  2  3
TYPE ASSIGNMENTS      3  3  3  3  4  4  4  4  4  2  2  3  3  4  4  2  3  4  2  3
TYPE ASSIGNMENTS      4  2  3  4  5  6  7  8  9 10
EXPONENTS  0.4563240D+04 0.6820240D+03 0.1549730D+03 0.4445530D+02 0.1302900D+02
EXPONENTS  0.1827730D+01 0.2096420D+02 0.4803310D+01 0.1459330D+01 0.2096420D+02
EXPONENTS  0.4803310D+01 0.1459330D+01 0.2096420D+02 0.4803310D+01 0.1459330D+01
EXPONENTS  0.2096420D+02 0.4803310D+01 0.1459330D+01 0.4834560D+00 0.4834560D+00
EXPONENTS  0.4834560D+00 0.4834560D+00 0.1455850D+00 0.1455850D+00 0.1455850D+00
EXPONENTS  0.1455850D+00 0.4380000D-01 0.4380000D-01 0.4380000D-01 0.4380000D-01
EXPONENTS  0.6260000D+00 0.6260000D+00 0.6260000D+00 0.6260000D+00 0.6260000D+00
EXPONENTS  0.6260000D+00 0.3386500D+02 0.5094790D+01 0.1158790D+01 0.3258400D+00
EXPONENTS  0.1027410D+00 0.3600000D-01 0.7500000D+00 0.7500000D+00 0.7500000D+00
EXPONENTS  0.3386500D+02 0.5094790D+01 0.1158790D+01 0.3258400D+00 0.1027410D+00
EXPONENTS  0.3600000D-01 0.7500000D+00 0.7500000D+00 0.7500000D+00 0.3386500D+02
EXPONENTS  0.5094790D+01 0.1158790D+01 0.3258400D+00 0.1027410D+00 0.3600000D-01
EXPONENTS  0.7500000D+00 0.7500000D+00 0.7500000D+00 0.4397000D+06 0.6603000D+05
EXPONENTS  0.1514000D+05 0.4317000D+04 0.1414000D+04 0.5239000D+03 0.5239000D+03
EXPONENTS  0.2077000D+03 0.8654000D+02 0.3052000D+02 0.1298000D+02 0.4412000D+01
EXPONENTS  0.1862000D+01 0.3932000D+00 0.1400000D+00 0.3500000D-01 0.3500000D-01
EXPONENTS  0.3500000D-01 0.3500000D-01 0.2957000D+04 0.7003000D+03 0.2246000D+03
EXPONENTS  0.2957000D+04 0.7003000D+03 0.2246000D+03 0.2957000D+04 0.7003000D+03
EXPONENTS  0.2246000D+03 0.8259000D+02 0.3319000D+02 0.1420000D+02 0.8259000D+02
EXPONENTS  0.3319000D+02 0.1420000D+02 0.8259000D+02 0.3319000D+02 0.1420000D+02
EXPONENTS  0.1420000D+02 0.7438000D+01 0.3526000D+01 0.1420000D+02 0.7438000D+01
EXPONENTS  0.3526000D+01 0.1420000D+02 0.7438000D+01 0.3526000D+01 0.1595000D+01
EXPONENTS  0.1595000D+01 0.1595000D+01 0.8462000D+00 0.8462000D+00 0.8462000D+00
EXPONENTS  0.3186000D+00 0.3186000D+00 0.3186000D+00 0.1096000D+00 0.1096000D+00
EXPONENTS  0.1096000D+00 0.1348000D+03 0.3639000D+02 0.1216000D+02 0.4341000D+01
EXPONENTS  0.1348000D+03 0.3639000D+02 0.1216000D+02 0.4341000D+01 0.1348000D+03
EXPONENTS  0.3639000D+02 0.1216000D+02 0.4341000D+01 0.1348000D+03 0.3639000D+02
EXPONENTS  0.1216000D+02 0.4341000D+01 0.1348000D+03 0.3639000D+02 0.1216000D+02
EXPONENTS  0.4341000D+01 0.1348000D+03 0.3639000D+02 0.1216000D+02 0.4341000D+01
EXPONENTS  0.1535000D+01 0.1535000D+01 0.1535000D+01 0.1535000D+01 0.1535000D+01
EXPONENTS  0.1535000D+01 0.4510000D+00 0.4510000D+00 0.4510000D+00 0.4510000D+00
EXPONENTS  0.4510000D+00 0.4510000D+00 0.1058190D+06 0.1587200D+05 0.3619650D+04
EXPONENTS  0.1030800D+04 0.3399080D+03 0.1245380D+03 0.1245380D+03 0.4951350D+02
EXPONENTS  0.2080560D+02 0.6583460D+01 0.2564680D+01 0.5597630D+00 0.1832730D+00
EXPONENTS  0.4830000D-01 0.4830000D-01 0.4830000D-01 0.4830000D-01 0.5897760D+03
EXPONENTS  0.1398490D+03 0.4514130D+02 0.1687330D+02 0.2771520D+01 0.5897760D+03
EXPONENTS  0.1398490D+03 0.4514130D+02 0.1687330D+02 0.2771520D+01 0.5897760D+03
EXPONENTS  0.1398490D+03 0.4514130D+02 0.1687330D+02 0.2771520D+01 0.6741100D+01
EXPONENTS  0.2771520D+01 0.6741100D+01 0.2771520D+01 0.6741100D+01 0.2771520D+01
EXPONENTS  0.1023870D+01 0.1023870D+01 0.1023870D+01 0.3813680D+00 0.3813680D+00
EXPONENTS  0.3813680D+00 0.1094370D+00 0.1094370D+00 0.1094370D+00 0.7500000D+00
EXPONENTS  0.7500000D+00 0.7500000D+00 0.7500000D+00 0.7500000D+00 0.7500000D+00
MO    1     MO 0.0        OCC NO =    2.0000000  ORB. ENERGY = -482.556156
 -0.10248133D-06 -0.19077851D-06 -0.31382886D-06 -0.42141948D-06 -0.39678233D-06
 -0.32606245D-07  0.26663922D-06  0.70851033D-06 -0.95512143D-09  0.29384013D-05
  0.27496196D-05  0.21296867D-05 -0.32880849D-07 -0.30768373D-07 -0.23831294D-07
 -0.31210032D-06 -0.29204900D-06 -0.22620324D-06 -0.10226318D-05 -0.30942179D-05
  0.34929976D-07  0.32884460D-06  0.18128743D-05  0.33632300D-05 -0.37348357D-07
 -0.35705017D-06  0.22178118D-05  0.15292565D-05 -0.17115729D-07 -0.16243585D-06
  0.32320512D-06 -0.16418406D-06 -0.15902107D-06 -0.10614944D-07 -0.10338146D-06
  0.10082571D-08  0.63536051D-07  0.11460997D-06  0.16896531D-06 -0.13337196D-05
 -0.20306978D-05 -0.15683437D-05 -0.11312232D-05 -0.28711720D-06  0.60267351D-06
  0.63453612D-07  0.11446126D-06  0.16874607D-06 -0.13333167D-05 -0.20303404D-05
 -0.15686090D-05 -0.12335486D-05 -0.25245479D-06 -0.37081780D-06  0.63620937D-07
  0.11476309D-06  0.16919105D-06 -0.13341423D-05 -0.20310703D-05 -0.15680630D-05
 -0.11709509D-05  0.57961665D-06  0.14400532D-06  0.38584358D+01  0.71955607D+01
  0.12109067D+02  0.19065833D+02  0.25289924D+02  0.16475087D+02  0.96359565D+01
  0.16238834D+02  0.34607838D+01  0.81720094D-01 -0.11304380D-01  0.24802673D-02
 -0.63922302D-03  0.69097370D-04 -0.20057652D-04  0.16451572D-05 -0.26682430D-06
  0.29712655D-08  0.28332833D-07 -0.94629643D-04 -0.12656040D-03 -0.14618702D-03
  0.10953792D-05  0.14649915D-05  0.16921782D-05  0.10067268D-04  0.13464253D-04
  0.15552250D-04 -0.29621831D-04 -0.13971621D-04 -0.24691889D-05  0.34262622D-06
  0.16160526D-06  0.28560316D-07  0.31508167D-05  0.14861342D-05  0.26264283D-06
  0.24858927D-05  0.51931479D-05  0.33091971D-05 -0.28206280D-07 -0.58924260D-07
 -0.37547936D-07 -0.26423423D-06 -0.55199786D-06 -0.35174613D-06 -0.89038147D-05
  0.10079803D-06  0.94634594D-06  0.71831401D-05 -0.81269749D-07 -0.76344900D-06
 -0.34169709D-05  0.38627635D-07  0.36315624D-06  0.20660011D-05 -0.23328188D-07
 -0.21956192D-06 -0.62030740D-04 -0.46239558D-04 -0.21434166D-04 -0.50118265D-05
  0.31537075D-04  0.23508673D-04  0.10897354D-04  0.25480649D-05  0.30493665D-04
  0.22730885D-04  0.10536813D-04  0.24637616D-05  0.21195155D-05  0.15799498D-05
  0.73237957D-06  0.17124806D-06  0.19894346D-04  0.14829837D-04  0.68743128D-05
  0.16073806D-05 -0.22473180D-06 -0.16752177D-06 -0.77654060D-07 -0.18157397D-07
  0.48229591D-05 -0.24520615D-05 -0.23708976D-05 -0.16489051D-06 -0.15468452D-05
  0.17467097D-07 -0.11747073D-05  0.59723885D-06  0.57746845D-06  0.40158458D-07
  0.37675570D-06 -0.42540899D-08  0.57777035D-07  0.10789319D-06  0.18366419D-06
  0.28471027D-06  0.38339178D-06  0.29058702D-06 -0.21015288D-06 -0.48953316D-06
 -0.11940866D-06  0.78374472D-06 -0.75063178D-06  0.44290504D-06  0.12283947D-06
  0.59191873D-05  0.54049459D-06 -0.59897843D-08 -0.57379026D-07 -0.17105303D-05
 -0.21904440D-05 -0.23437516D-05 -0.18649536D-05 -0.42922906D-06  0.17917708D-07
  0.22944777D-07  0.24550665D-07  0.19535284D-07  0.44961502D-08  0.18099318D-06
  0.23177341D-06  0.24799506D-06  0.19733289D-06  0.45417222D-07  0.13811303D-05
 -0.28699922D-06 -0.14372010D-07  0.29865073D-08 -0.14608430D-06  0.30356353D-07
  0.44714111D-06 -0.47312046D-08 -0.47339244D-07  0.37901992D-07 -0.53428082D-09
 -0.40908068D-08  0.11505977D-05 -0.12806325D-07 -0.12217902D-06  0.69836415D-06
 -0.35503698D-06 -0.34332718D-06 -0.23396902D-07 -0.22372571D-06  0.24625669D-08
MO    2     MO 0.0        OCC NO =    2.0000000  ORB. ENERGY = -101.404932
  0.17538448D-05  0.32649450D-05  0.53708038D-05  0.72120881D-05  0.67904528D-05
  0.55801671D-06 -0.41209238D-05 -0.10950066D-04  0.14761454D-07 -0.51066003D-04
 -0.47785197D-04 -0.37011482D-04  0.56983743D-06  0.53322744D-06  0.41300526D-06
  0.54234174D-05  0.50749825D-05  0.39307701D-05 -0.56978943D-05  0.26620626D-04
 -0.29691347D-06 -0.28274212D-05  0.58120957D-04 -0.25884733D-04  0.28876207D-06
  0.27490662D-05 -0.12185254D-03  0.27526109D-04 -0.30719378D-06 -0.29233742D-05
 -0.13021269D-04  0.66209528D-05  0.64003166D-05  0.43831233D-06  0.41718169D-05
 -0.46404007D-07  0.62380944D-06  0.11252632D-05  0.16589346D-05 -0.22734614D-04
  0.27311934D-05  0.40769818D-05  0.14209325D-04 -0.86391989D-05  0.12166101D-04
  0.62377482D-06  0.11252008D-05  0.16588425D-05 -0.22734410D-04  0.27311062D-05
  0.40775257D-05  0.11289954D-04 -0.76717129D-05 -0.15435821D-04  0.62382544D-06
  0.11252921D-05  0.16589772D-05 -0.22735024D-04  0.27311581D-05  0.40764034D-05
  0.13104066D-04  0.15881607D-04 -0.83002118D-06  0.29408885D-07  0.54844353D-07
  0.92294953D-07  0.14531922D-06  0.19275906D-06  0.12557263D-06 -0.10034436D-05
 -0.16910365D-05 -0.36038990D-06  0.61087416D-05 -0.86195190D-05  0.81734275D-05
 -0.56512321D-05  0.38113700D-05 -0.61880840D-05 -0.14614360D-04  0.22060932D-05
 -0.25079991D-07 -0.23453156D-06  0.13886279D-04  0.18571908D-04  0.21451987D-04
 -0.15862407D-06 -0.21214838D-06 -0.24504774D-06 -0.14766348D-05 -0.19748937D-05
 -0.22811546D-05 -0.43878069D-04 -0.20695809D-04 -0.36575471D-05  0.50131623D-06
  0.23645400D-06  0.41788250D-07  0.46659360D-05  0.22007651D-05  0.38893874D-06
  0.53231014D-05  0.11120212D-04  0.70860628D-05 -0.60830110D-07 -0.12707699D-06
 -0.80976474D-07 -0.56605891D-06 -0.11825240D-05 -0.75353233D-06 -0.18388965D-04
  0.21038173D-06  0.19556212D-05  0.12744482D-04 -0.14610714D-06 -0.13555159D-05
 -0.30354895D-05  0.35226681D-07  0.32309781D-06  0.15355146D-05 -0.17780133D-07
 -0.16342427D-06  0.17568798D-03  0.13096304D-03  0.60707407D-04  0.14194860D-04
 -0.89322051D-04 -0.66583313D-04 -0.30864434D-04 -0.72168512D-05 -0.86365929D-04
 -0.64379731D-04 -0.29842973D-04 -0.69780088D-05 -0.59008462D-05 -0.43986662D-05
 -0.20389845D-05 -0.47676389D-06 -0.56286336D-04 -0.41957509D-04 -0.19449239D-04
 -0.45477025D-05  0.62709305D-06  0.46745380D-06  0.21668638D-06  0.50666517D-07
 -0.13703005D-04  0.69667810D-05  0.67362240D-05  0.46027582D-06  0.43901473D-05
 -0.48907376D-07  0.33584584D-05 -0.17074770D-05 -0.16509813D-05 -0.11282641D-06
 -0.10759952D-05  0.11981650D-07  0.12702086D+01  0.23719955D+01  0.40377953D+01
  0.62592593D+01  0.84287390D+01  0.63884576D+01  0.23318113D+01  0.54317550D+01
  0.13249329D+01  0.43928384D-01 -0.57166332D-02  0.69087227D-03 -0.22946359D-03
  0.15422100D-03  0.23521796D-04 -0.26177901D-06 -0.24977090D-05  0.87447611D-03
  0.11198229D-02  0.11981985D-02  0.95342210D-03  0.21943520D-03 -0.97274559D-05
 -0.12456633D-04 -0.13328463D-04 -0.10605632D-04 -0.24409429D-05 -0.92858198D-04
 -0.11891089D-03 -0.12723338D-03 -0.10124125D-03 -0.23301217D-04 -0.17568253D-03
  0.36506873D-04  0.19534034D-05 -0.40591771D-06  0.18655112D-04 -0.38765368D-05
 -0.63203005D-04  0.70279032D-06  0.67112563D-05  0.42064290D-05 -0.46567269D-07
 -0.44658913D-06 -0.19726624D-04  0.21966163D-06  0.20947713D-05 -0.16228919D-04
  0.82509919D-05  0.79779274D-05  0.54586354D-06  0.51999772D-05 -0.57994044D-07
MO    3     MO 0.0        OCC NO =    2.0000000  ORB. ENERGY =  -62.209268
 -0.10100845D-05 -0.18803660D-05 -0.30931845D-05 -0.41536276D-05 -0.39107970D-05
 -0.32137622D-06  0.32304817D-05  0.85839948D-05 -0.11571825D-07  0.40425153D-04
  0.37827983D-04  0.29299235D-04 -0.45238716D-06 -0.42332292D-06 -0.32787996D-06
 -0.42937468D-05 -0.40178891D-05 -0.31120104D-05 -0.14389092D-04 -0.43472434D-04
  0.49068668D-06  0.46200838D-05  0.25618745D-04  0.47600093D-04 -0.52859488D-06
 -0.50533617D-05  0.32174083D-04  0.21733367D-04 -0.24324266D-06 -0.23084921D-05
  0.44831726D-05 -0.22773459D-05 -0.22058267D-05 -0.14728996D-06 -0.14340396D-05
  0.13945564D-07  0.85891772D-06  0.15493650D-05  0.22841724D-05 -0.18725276D-04
 -0.28993887D-04 -0.22446527D-04 -0.15821972D-04 -0.40135580D-05  0.84258406D-05
  0.85777679D-06  0.15473069D-05  0.22811383D-05 -0.18719662D-04 -0.28988778D-04
 -0.22450314D-04 -0.17252381D-04 -0.35290276D-05 -0.51829081D-05  0.86009137D-06
  0.15514821D-05  0.22872936D-05 -0.18731168D-04 -0.28999207D-04 -0.22442524D-04
 -0.16377369D-04  0.81026938D-05  0.20139948D-05 -0.12742137D+01 -0.23762691D+01
 -0.39989103D+01 -0.62963196D+01 -0.83517696D+01 -0.54407490D+01 -0.53839915D+01
 -0.90732814D+01 -0.19336773D+01  0.58198861D+01  0.24292146D+01  0.10308466D+00
 -0.10919922D-01  0.10025292D-02 -0.28811696D-03  0.23607845D-04 -0.38115118D-05
  0.42444489D-07  0.40472660D-06 -0.17612562D-02 -0.23555546D-02 -0.27208473D-02
  0.22288554D-04  0.29809352D-04  0.34432101D-04  0.18792683D-03  0.25133873D-03
  0.29031562D-03 -0.26828568D-02 -0.12654133D-02 -0.22363507D-03  0.33620097D-04
  0.15857469D-04  0.28024726D-05  0.28616488D-03  0.13497434D-03  0.23853864D-04
  0.23416502D-04  0.48918185D-04  0.31171828D-04 -0.25587774D-06 -0.53454076D-06
 -0.34062206D-06 -0.24863044D-05 -0.51940081D-05 -0.33097452D-05 -0.11531824D-03
  0.12989176D-05  0.12254459D-04  0.97634823D-04 -0.11030754D-05 -0.10376336D-04
 -0.47957833D-04  0.54207784D-06  0.50969149D-05  0.29289071D-04 -0.33071453D-06
 -0.31126572D-05 -0.64930431D-03 -0.48401074D-03 -0.22436129D-03 -0.52461095D-04
  0.33006324D-03  0.24603895D-03  0.11405039D-03  0.26667740D-04  0.31924107D-03
  0.23797179D-03  0.11031089D-03  0.25793355D-04  0.21911132D-04  0.16333209D-04
  0.75711953D-05  0.17703286D-05  0.20813801D-03  0.15515226D-03  0.71920223D-04
  0.16816687D-04 -0.23778306D-05 -0.17725057D-05 -0.82163807D-06 -0.19211885D-06
  0.63905099D-04 -0.32489605D-04 -0.31415494D-04 -0.21810269D-05 -0.20494521D-04
  0.23110443D-06 -0.16245019D-04  0.82591806D-05  0.79858387D-05  0.55521668D-06
  0.52100844D-05 -0.58777416D-07  0.17418491D-06  0.32527397D-06  0.55370667D-06
  0.85833813D-06  0.11558409D-05  0.87605521D-06 -0.18052963D-05 -0.42052833D-05
 -0.10257676D-05  0.95735168D-05 -0.98986269D-05  0.61869116D-05  0.16506544D-05
  0.84006213D-04  0.76641160D-05 -0.84932479D-07 -0.81362341D-06 -0.20201366D-04
 -0.25869148D-04 -0.27679711D-04 -0.22025106D-04 -0.50691961D-05  0.21197247D-06
  0.27144437D-06  0.29044256D-06  0.23110892D-06  0.53190957D-07  0.21377289D-05
  0.27374992D-05  0.29290948D-05  0.23307189D-05  0.53642743D-06  0.15086440D-04
 -0.31349658D-05 -0.15739554D-06  0.32706832D-07 -0.15959424D-05  0.33163722D-06
  0.57877026D-05 -0.61285957D-07 -0.61277244D-06  0.64617744D-06 -0.87259630D-08
 -0.69519857D-07  0.16309643D-04 -0.18153354D-06 -0.17318814D-05  0.99012732D-05
 -0.50336510D-05 -0.48676222D-05 -0.33173183D-06 -0.31719476D-05  0.34920249D-07
MO    4     MO 0.0        OCC NO =    2.0000000  ORB. ENERGY =  -56.027061
 -0.31925326D-05 -0.59431958D-05 -0.97765012D-05 -0.13128200D-04 -0.12360695D-04
 -0.10157606D-05  0.89093158D-05  0.23673720D-04 -0.31913829D-07 -0.29001443D-04
 -0.27138205D-04 -0.21019589D-04  0.32734138D-06  0.30631088D-06  0.23724961D-06
  0.30839650D-05  0.28858314D-05  0.22351880D-05 -0.20242424D-04  0.14087947D-05
 -0.26518813D-07 -0.15792257D-06 -0.52306508D-04 -0.16971454D-04  0.18740474D-06
  0.18018633D-05 -0.10320500D-03  0.49675420D-04 -0.55479996D-06 -0.52760884D-05
  0.40102777D-04 -0.20393907D-04 -0.19708870D-04 -0.13565678D-05 -0.12852677D-04
  0.14957930D-06 -0.10804799D-04 -0.19490315D-04 -0.28733862D-04  0.76898304D-04
 -0.12565695D-04  0.62397140D-05  0.32329956D-04  0.32555460D-04 -0.56513932D-04
 -0.10804389D-04 -0.19489576D-04 -0.28732773D-04  0.76897911D-04 -0.12574270D-04
  0.62508904D-05  0.43664061D-04  0.28793175D-04  0.50606630D-04 -0.10805458D-04
 -0.19491504D-04 -0.28735615D-04  0.76898211D-04 -0.12551270D-04  0.62207647D-05
  0.36629406D-04 -0.62635063D-04 -0.60722960D-05 -0.27727730D-04 -0.51709182D-04
 -0.87018923D-04 -0.13701207D-03 -0.18174001D-03 -0.11839429D-03 -0.12763426D-03
 -0.21509350D-03 -0.45840244D-04  0.18178975D-03 -0.19234268D-04  0.76686974D-04
 -0.53027221D-04  0.24922602D-04 -0.17782150D-04 -0.45887484D-04 -0.80891432D-06
  0.14000335D-07  0.88004470D-07  0.87213442D+02  0.11664176D+03  0.13473023D+03
 -0.10363318D+01 -0.13860199D+01 -0.16009599D+01 -0.92901827D+01 -0.12424957D+02
 -0.14351784D+02  0.11214078D+03  0.52893032D+02  0.93477262D+01 -0.13325365D+01
 -0.62851263D+00 -0.11107633D+00 -0.11945502D+02 -0.56342913D+01 -0.99574198D+00
  0.99582671D-01  0.20803293D+00  0.13256352D+00 -0.11832638D-02 -0.24718943D-02
 -0.15751497D-02 -0.10607762D-01 -0.22160118D-01 -0.14120953D-01 -0.37307276D-01
  0.44313627D-03  0.39739838D-02  0.10456343D-01 -0.12411780D-03 -0.11137772D-02
 -0.10783946D-02  0.12771616D-04  0.11485456D-03  0.12237058D-03 -0.14412291D-05
 -0.13029631D-04 -0.12177053D-03 -0.90771372D-04 -0.42076715D-04 -0.98385535D-05
  0.61934418D-04  0.46167757D-04  0.21400883D-04  0.50040441D-05  0.59836110D-04
  0.44603615D-04  0.20675832D-04  0.48345095D-05  0.51144067D-05  0.38124308D-05
  0.17672374D-05  0.41322285D-06  0.39418837D-04  0.29383973D-04  0.13620826D-04
  0.31848786D-05 -0.62874699D-06 -0.46868670D-06 -0.21725789D-06 -0.50800148D-07
 -0.10579921D-04  0.53779497D-05  0.52019711D-05  0.34098791D-06  0.33833044D-05
 -0.31570485D-07  0.35086339D-05 -0.17837151D-05 -0.17249188D-05 -0.11658603D-06
 -0.11235423D-05  0.11788109D-07  0.31778694D-06  0.59343730D-06  0.10101952D-05
  0.15659718D-05  0.21087427D-05  0.15982952D-05 -0.35312090D-05 -0.82256495D-05
 -0.20064295D-05  0.19362106D-04 -0.20651598D-04  0.18202844D-04 -0.23933328D-04
  0.17161122D-03  0.18069252D-04 -0.19896942D-06 -0.19176403D-05 -0.10492783D-03
 -0.13436683D-03 -0.14377107D-03 -0.11440051D-03 -0.26329891D-04  0.11979935D-05
  0.15341077D-05  0.16414788D-05  0.13061460D-05  0.30061650D-06  0.11156518D-04
  0.14286639D-04  0.15286550D-04  0.12163707D-04  0.27995423D-05  0.80812058D-04
 -0.16792765D-04 -0.92360695D-06  0.19192575D-06 -0.85928294D-05  0.17855920D-05
  0.29975972D-04 -0.34130294D-06 -0.31867804D-05 -0.16661117D-04  0.18948546D-06
  0.17711637D-05  0.99284827D-05 -0.11273292D-06 -0.10553720D-05 -0.14798669D-05
  0.75225671D-06  0.72761018D-06  0.50293885D-07  0.47455997D-06 -0.52297692D-08
MO    5     MO 0.0        OCC NO =    2.0000000  ORB. ENERGY =  -56.026990
  0.32869957D-10  0.61190477D-10  0.10065776D-09  0.13516648D-09  0.12726433D-09
  0.10458157D-10 -0.14309883D-09 -0.38024040D-09  0.51259062D-12  0.14284976D-05
  0.13367218D-05  0.10353427D-05 -0.53806933D-05 -0.50350032D-05 -0.38998046D-05
  0.14029755D-04  0.13128394D-04  0.10168449D-04  0.58848113D-09 -0.10213130D-05
  0.38422854D-05 -0.10028240D-04 -0.26637035D-08  0.95166790D-06 -0.35873287D-05
  0.93475588D-05 -0.23755287D-08 -0.23951005D-06  0.90382628D-06 -0.23544143D-05
  0.19076943D-06  0.78201308D-06 -0.97278250D-06 -0.95917561D-07  0.17647110D-05
  0.58488373D-05  0.89168104D-06  0.16084654D-05  0.23713019D-05 -0.77522156D-06
 -0.20420821D-04  0.23341585D-04 -0.19682703D-04 -0.44405823D-05  0.55310961D-05
 -0.59747552D-06 -0.10777606D-05 -0.15889032D-05  0.52034191D-06  0.13680703D-04
 -0.15634505D-04  0.13414108D-04  0.89588695D-05 -0.22011986D-05 -0.29480541D-06
 -0.53178690D-06 -0.78399406D-06  0.26008479D-06  0.67429329D-05 -0.77067588D-05
  0.54663401D-05 -0.14865639D-05 -0.11243155D-04 -0.31984748D-08 -0.59648056D-08
 -0.10037888D-07 -0.15804743D-07 -0.20964242D-07 -0.13657127D-07 -0.13946115D-07
 -0.23502457D-07 -0.50087908D-08  0.17625008D-07  0.30638132D-08  0.22788496D-08
 -0.15122830D-08  0.52838660D-09 -0.18055931D-09 -0.12763470D-09 -0.80497312D-06
  0.30309790D-05 -0.78952417D-05  0.83115207D+01  0.11116066D+02  0.12839914D+02
 -0.31296102D+02 -0.41856304D+02 -0.48347260D+02  0.81517178D+02  0.10902341D+03
  0.12593045D+03  0.10687172D+02  0.50407795D+01  0.89085130D+00 -0.40241351D+02
 -0.18980491D+02 -0.33544009D+01  0.10481693D+03  0.49438621D+02  0.87372319D+01
  0.94828227D-02  0.19810067D-01  0.12623445D-01 -0.35706497D-01 -0.74592569D-01
 -0.47532155D-01  0.93004976D-01  0.19429182D+00  0.12380735D+00 -0.35289743D-02
  0.13287919D-01 -0.34611162D-01  0.97667466D-03 -0.36775313D-02  0.95789064D-02
 -0.96320631D-04  0.36267637D-03 -0.94466909D-03  0.96768418D-05 -0.36435170D-04
  0.94904141D-04 -0.49275212D-04 -0.36731208D-04 -0.17026608D-04 -0.39812328D-05
 -0.25674280D-05 -0.19138372D-05 -0.88715175D-06 -0.20743754D-06  0.51842640D-04
  0.38645046D-04  0.17913760D-04  0.41886703D-05  0.18603193D-03  0.13867373D-03
  0.64281667D-04  0.15030608D-04 -0.47835419D-03 -0.35657943D-03 -0.16529100D-03
 -0.38649034D-04 -0.15377609D-04 -0.11462927D-04 -0.53135949D-05 -0.12424470D-05
  0.92448964D-06  0.82226146D-07 -0.10067158D-05 -0.34594970D-05  0.89738885D-05
  0.54592380D-06 -0.16319489D-06 -0.15191753D-07  0.17838665D-06  0.60985668D-06
 -0.15843495D-05 -0.10570667D-06  0.22884804D-11  0.42735224D-11  0.72747225D-11
  0.11277039D-10  0.15185697D-10  0.11509810D-10 -0.25674704D-10 -0.59807028D-10
 -0.14588342D-10  0.13507209D-09 -0.13074769D-09  0.55748407D-10 -0.14061747D-09
  0.16513936D-08 -0.69137376D-07  0.26094966D-06 -0.68008988D-06 -0.38971343D-05
 -0.49905310D-05 -0.53398147D-05 -0.42489600D-05 -0.97792089D-06  0.14682121D-04
  0.18801399D-04  0.20117296D-04  0.16007594D-04  0.36842334D-05 -0.38247423D-04
 -0.48978283D-04 -0.52406238D-04 -0.41700325D-04 -0.95975532D-05  0.31362378D-05
 -0.65171099D-06 -0.11815395D-04  0.24552419D-05  0.30779566D-04 -0.63960013D-05
  0.98285466D-06 -0.37029314D-05  0.96462329D-05 -0.51412646D-06  0.19368469D-05
 -0.50456150D-05  0.15957012D-06 -0.60126302D-06  0.15663697D-05 -0.26533199D-07
 -0.14245711D-06  0.16899031D-06 -0.14257769D-07 -0.24216837D-06 -0.10642824D-05
MO    6     MO 0.0        OCC NO =    2.0000000  ORB. ENERGY =  -56.026990
 -0.16179543D-08 -0.30119721D-08 -0.49546657D-08 -0.66532845D-08 -0.62643182D-08
 -0.51478073D-09  0.42733057D-08  0.11354973D-07 -0.15307297D-10  0.70219731D-06
  0.65708367D-06  0.50893670D-06  0.14093994D-04  0.13188506D-04  0.10215008D-04
  0.53449190D-05  0.50015273D-05  0.38738762D-05 -0.81337459D-08 -0.51376867D-06
 -0.10068812D-04 -0.38209810D-05 -0.41876464D-07  0.46853890D-06  0.93937457D-05
  0.35600013D-05 -0.52622560D-07 -0.95579219D-07 -0.23666724D-05 -0.89891796D-06
  0.15541463D-06 -0.29443850D-05  0.27889704D-05  0.19961925D-05  0.13264335D-05
  0.13434513D-05 -0.18195299D-06 -0.32821724D-06 -0.48387872D-06  0.20618776D-06
  0.39977414D-05 -0.45717949D-05  0.31371069D-05 -0.87412720D-05 -0.71027703D-05
 -0.69198805D-06 -0.12482477D-05 -0.18402462D-05  0.64815920D-06  0.15681425D-04
 -0.17924518D-04  0.16085828D-04 -0.46885722D-05  0.54528358D-05  0.85289246D-06
  0.15384963D-05  0.22681491D-05 -0.69953250D-06 -0.19688517D-04  0.22503213D-04
 -0.19548954D-04  0.54842051D-05 -0.13734497D-05  0.22869515D-07  0.42649143D-07
  0.71772215D-07  0.11300599D-06  0.14989709D-06  0.97650256D-07  0.89841467D-07
  0.15140383D-06  0.32266843D-07 -0.78828657D-07 -0.81340757D-07  0.43564068D-07
 -0.31704176D-07  0.13931450D-07 -0.93508804D-08 -0.22892955D-07 -0.41041987D-06
 -0.79353633D-05 -0.30048646D-05  0.42778774D+01  0.57213558D+01  0.66086074D+01
  0.81933252D+02  0.10957988D+03  0.12657322D+03  0.31019667D+02  0.41486592D+02
  0.47920214D+02  0.55006068D+01  0.25944512D+01  0.45851444D+00  0.10535193D+03
  0.49690961D+02  0.87818278D+01  0.39885903D+02  0.18812839D+02  0.33247719D+01
  0.48807889D-02  0.10196200D-01  0.64972605D-02  0.93479688D-01  0.19528351D+00
  0.12443929D+00  0.35391109D-01  0.73933708D-01  0.47112313D-01 -0.18165222D-02
 -0.34787830D-01 -0.13170552D-01  0.50282567D-03  0.96278018D-02  0.36450464D-02
 -0.49619120D-04 -0.94949013D-03 -0.35947077D-03  0.49927696D-05  0.95387920D-04
  0.36112778D-04 -0.25360476D-04 -0.18904453D-04 -0.87630854D-05 -0.20490213D-05
  0.67411571D-05  0.50250589D-05  0.23293464D-05  0.54465753D-06  0.18619319D-04
  0.13879394D-04  0.64337389D-05  0.15043638D-05 -0.48584362D-03 -0.36216228D-03
 -0.16787891D-03 -0.39254149D-04 -0.18165286D-03 -0.13540944D-03 -0.62768517D-04
 -0.14676797D-04  0.53671582D-04  0.40008393D-04  0.18545734D-04  0.43364412D-05
  0.46592828D-06 -0.24680354D-06 -0.21912475D-06  0.91229408D-05  0.34440850D-05
 -0.93598564D-06 -0.80709800D-07  0.46591538D-07  0.34118262D-07 -0.16107555D-05
 -0.60925950D-06  0.16244155D-06  0.15569188D-09  0.29073998D-09  0.49492021D-09
  0.76720927D-09  0.10331265D-08  0.78304534D-09 -0.17304374D-08 -0.40309059D-08
 -0.98323283D-09  0.94774579D-08 -0.10084418D-07  0.86647099D-08 -0.11700769D-07
  0.87341511D-07 -0.26196613D-07 -0.68341280D-06 -0.25984575D-06 -0.20144287D-05
 -0.25796054D-05 -0.27601501D-05 -0.21962873D-05 -0.50548729D-06 -0.38439619D-04
 -0.49224402D-04 -0.52669583D-04 -0.41909872D-04 -0.96457815D-05 -0.14554070D-04
 -0.18637421D-04 -0.19941841D-04 -0.15867982D-04 -0.36521011D-05  0.16192655D-05
 -0.33648376D-06  0.30934214D-04 -0.64281373D-05  0.11712574D-04 -0.24338758D-05
  0.50981021D-06  0.96947108D-05  0.36704349D-05 -0.26723763D-06 -0.50709248D-05
 -0.19198343D-05  0.84912740D-07  0.15741248D-05  0.59577200D-06 -0.21099657D-07
  0.53468162D-06 -0.51358196D-06 -0.28240077D-06 -0.21314484D-06 -0.25382635D-06
MO    7     MO 0.0        OCC NO =    2.0000000  ORB. ENERGY =  -10.079231
  0.43813616D+00  0.81563114D+00  0.13417056D+01  0.18016854D+01  0.16963547D+01
  0.13940076D+00  0.37088220D+00  0.98550346D+00 -0.13285275D-02 -0.31343585D-02
 -0.29329873D-02 -0.22717120D-02  0.35161679D-04  0.32902668D-04  0.25484388D-04
  0.33296148D-03  0.31156991D-03  0.24132294D-03  0.79462650D-02  0.16173023D-02
 -0.18098846D-04 -0.17177525D-03 -0.15051048D-02  0.63835599D-04 -0.70982806D-06
 -0.67803204D-05 -0.66634452D-03 -0.91502389D-04  0.10279580D-05  0.97204279D-05
 -0.12507436D-02  0.63591216D-03  0.61483149D-03  0.42072598D-04  0.40071703D-03
 -0.44646420D-05  0.56100218D-04  0.10119679D-03  0.14919074D-03 -0.12906350D-02
  0.73536536D-03  0.23077652D-04  0.73369648D-03 -0.12195828D-02  0.18754772D-02
  0.56100339D-04  0.10119701D-03  0.14919106D-03 -0.12906599D-02  0.73537806D-03
  0.23067563D-04  0.31655650D-03 -0.10814140D-02 -0.20672557D-02  0.56099451D-04
  0.10119541D-03  0.14918870D-03 -0.12906245D-02  0.73535184D-03  0.23084811D-04
  0.57565368D-03  0.22828347D-02  0.19107482D-04 -0.35398675D-06 -0.66014657D-06
 -0.11109293D-05 -0.17491680D-05 -0.23201884D-05 -0.15114836D-05  0.59308000D-05
  0.99947813D-05  0.21300653D-05 -0.54736659D-04  0.98397552D-04 -0.12205531D-03
  0.98061165D-04 -0.39007499D-04  0.38922486D-04  0.14000498D-03 -0.22158491D-04
  0.24973558D-06  0.23546166D-05  0.76579537D-04  0.10241967D-03  0.11830262D-03
 -0.89289470D-06 -0.11941830D-05 -0.13793735D-05 -0.81571208D-05 -0.10909567D-04
 -0.12601392D-04  0.32765581D-03  0.15454422D-03  0.27312427D-04 -0.38006534D-05
 -0.17926403D-05 -0.31681131D-06 -0.34887747D-04 -0.16455377D-04 -0.29081403D-05
 -0.49395737D-04 -0.10319004D-03 -0.65755143D-04  0.57167329D-06  0.11942527D-05
  0.76100614D-06  0.52586332D-05  0.10985535D-04  0.70002434D-05  0.24999302D-03
 -0.28772364D-05 -0.26603692D-04 -0.23982381D-03  0.27469026D-05  0.25513029D-04
  0.11210790D-03 -0.12761304D-05 -0.11921271D-04 -0.30205672D-04  0.34709268D-06
  0.32140964D-05 -0.42158527D-03 -0.31426219D-03 -0.14567501D-03 -0.34062341D-04
  0.21440967D-03  0.15982734D-03  0.74087339D-04  0.17323412D-04  0.20717560D-03
  0.15443485D-03  0.71587671D-04  0.16738929D-04  0.14114393D-04  0.10521288D-04
  0.48771021D-05  0.11403844D-05  0.13500502D-03  0.10063676D-03  0.46649776D-04
  0.10907846D-04 -0.15742706D-05 -0.11735081D-05 -0.54397512D-06 -0.12719454D-06
  0.46529318D-04 -0.23662975D-04 -0.22866343D-04 -0.15583814D-05 -0.14900856D-04
  0.17286075D-06 -0.25209306D-04  0.12819075D-04  0.12390232D-04  0.84599977D-06
  0.80747215D-05 -0.92336262D-07 -0.10933165D-04 -0.20416660D-04 -0.34754828D-04
 -0.53875807D-04 -0.72549337D-04 -0.54987865D-04 -0.47378823D-04 -0.11036492D-03
 -0.26920601D-04  0.13572685D-03 -0.91918913D-04 -0.23516118D-04  0.23156418D-03
  0.22795727D-04  0.32704277D-06 -0.81892753D-08 -0.37255521D-07 -0.14087077D-02
 -0.18039407D-02 -0.19301972D-02 -0.15358830D-02 -0.35349171D-03  0.15698819D-04
  0.20103347D-04  0.21510365D-04  0.17116078D-04  0.39393569D-05  0.14959626D-03
  0.19156762D-03  0.20497530D-03  0.16310151D-03  0.37538687D-04  0.77432922D-03
 -0.16090580D-03 -0.86289706D-05  0.17931022D-05 -0.82229181D-04  0.17087244D-04
  0.20870300D-03 -0.23266848D-05 -0.22162543D-04  0.14039348D-03 -0.15642621D-05
 -0.14909844D-04  0.72646017D-04 -0.80664678D-06 -0.77132097D-05  0.22105815D-03