 Single Point Energy
GAUSSIAN             31 MOL ORBITALS    210 PRIMITIVES        6 NUCLEI   B3LYP
  C    1    (CENTRE  1)  -0.10747880  0.44154024  1.91354681  CHARGE =  6.0
  H    2    (CENTRE  2)  -0.71773202 -1.49982730  1.89789350  CHARGE =  1.0
  H    3    (CENTRE  3)  -1.40064138  1.78651154  1.10094291  CHARGE =  1.0
  H    4    (CENTRE  4)   1.86474581  0.75663251  1.52285593  CHARGE =  1.0
  Br   5    (CENTRE  5)   0.18191354 -0.74519960 -3.22931453  CHARGE = 35.0
  Cl   6    (CENTRE  6)  -0.32167490  1.31702517  5.70723738  CHARGE = 17.0
CENTRE ASSIGNMENTS    1  1  1  1  1  1  1  1  1  1  1  1  1  1  1  1  1  1  1  1
CENTRE ASSIGNMENTS    1  1  1  1  1  1  1  1  1  1  1  1  1  1  1  1  2  2  2  2
CENTRE ASSIGNMENTS    2  2  2  2  2  3  3  3  3  3  3  3  3  3  4  4  4  4  4  4
CENTRE ASSIGNMENTS    4  4  4  5  5  5  5  5  5  5  5  5  5  5  5  5  5  5  5  5
CENTRE ASSIGNMENTS    5  5  5  5  5  5  5  5  5  5  5  5  5  5  5  5  5  5  5  5
CENTRE ASSIGNMENTS    5  5  5  5  5  5  5  5  5  5  5  5  5  5  5  5  5  5  5  5
CENTRE ASSIGNMENTS    5  5  5  5  5  5  5  5  5  5  5  5  5  5  5  5  5  5  5  5
CENTRE ASSIGNMENTS    5  5  5  5  5  5  5  5  5  5  5  5  5  5  5  5  5  6  6  6
CENTRE ASSIGNMENTS    6  6  6  6  6  6  6  6  6  6  6  6  6  6  6  6  6  6  6  6
CENTRE ASSIGNMENTS    6  6  6  6  6  6  6  6  6  6  6  6  6  6  6  6  6  6  6  6
CENTRE ASSIGNMENTS    6  6  6  6  6  6  6  6  6  6
TYPE ASSIGNMENTS      1  1  1  1  1  1  1  1  1  2  2  2  3  3  3  4  4  4  1  2
TYPE ASSIGNMENTS      3  4  1  2  3  4  1  2  3  4  5  6  7  8  9 10  1  1  1  1
TYPE ASSIGNMENTS      1  1  2  3  4  1  1  1  1  1  1  2  3  4  1  1  1  1  1  1
TYPE ASSIGNMENTS      2  3  4  1  1  1  1  1  1  1  1  1  1  1  1  1  1  1  1  2
TYPE ASSIGNMENTS      3  4  2  2  2  3  3  3  4  4  4  2  2  2  3  3  3  4  4  4
TYPE ASSIGNMENTS      2  2  2  3  3  3  4  4  4  2  3  4  2  3  4  2  3  4  2  3
TYPE ASSIGNMENTS      4  5  5  5  5  6  6  6  6  7  7  7  7  8  8  8  8  9  9  9
TYPE ASSIGNMENTS      9 10 10 10 10  5  6  7  8  9 10  5  6  7  8  9 10  1  1  1
TYPE ASSIGNMENTS      1  1  1  1  1  1  1  1  1  1  1  2  3  4  2  2  2  2  2  3
TYPE ASSIGNMENTS      3  3  3  3  4  4  4  4  4  2  2  3  3  4  4  2  3  4  2  3
TYPE ASSIGNMENTS      4  2  3  4  5  6  7  8  9 10
EXPONENTS  0.4563240D+04 0.6820240D+03 0.1549730D+03 0.4445530D+02 0.1302900D+02
EXPONENTS  0.1827730D+01 0.2096420D+02 0.4803310D+01 0.1459330D+01 0.2096420D+02
EXPONENTS  0.4803310D+01 0.1459330D+01 0.2096420D+02 0.4803310D+01 0.1459330D+01
EXPONENTS  0.2096420D+02 0.4803310D+01 0.1459330D+01 0.4834560D+00 0.4834560D+00
EXPONENTS  0.4834560D+00 0.4834560D+00 0.1455850D+00 0.1455850D+00 0.1455850D+00
EXPONENTS  0.1455850D+00 0.4380000D-01 0.4380000D-01 0.4380000D-01 0.4380000D-01
EXPONENTS  0.6260000D+00 0.6260000D+00 0.6260000D+00 0.6260000D+00 0.6260000D+00
EXPONENTS  0.6260000D+00 0.3386500D+02 0.5094790D+01 0.1158790D+01 0.3258400D+00
EXPONENTS  0.1027410D+00 0.3600000D-01 0.7500000D+00 0.7500000D+00 0.7500000D+00
EXPONENTS  0.3386500D+02 0.5094790D+01 0.1158790D+01 0.3258400D+00 0.1027410D+00
EXPONENTS  0.3600000D-01 0.7500000D+00 0.7500000D+00 0.7500000D+00 0.3386500D+02
EXPONENTS  0.5094790D+01 0.1158790D+01 0.3258400D+00 0.1027410D+00 0.3600000D-01
EXPONENTS  0.7500000D+00 0.7500000D+00 0.7500000D+00 0.4397000D+06 0.6603000D+05
EXPONENTS  0.1514000D+05 0.4317000D+04 0.1414000D+04 0.5239000D+03 0.5239000D+03
EXPONENTS  0.2077000D+03 0.8654000D+02 0.3052000D+02 0.1298000D+02 0.4412000D+01
EXPONENTS  0.1862000D+01 0.3932000D+00 0.1400000D+00 0.3500000D-01 0.3500000D-01
EXPONENTS  0.3500000D-01 0.3500000D-01 0.2957000D+04 0.7003000D+03 0.2246000D+03
EXPONENTS  0.2957000D+04 0.7003000D+03 0.2246000D+03 0.2957000D+04 0.7003000D+03
EXPONENTS  0.2246000D+03 0.8259000D+02 0.3319000D+02 0.1420000D+02 0.8259000D+02
EXPONENTS  0.3319000D+02 0.1420000D+02 0.8259000D+02 0.3319000D+02 0.1420000D+02
EXPONENTS  0.1420000D+02 0.7438000D+01 0.3526000D+01 0.1420000D+02 0.7438000D+01
EXPONENTS  0.3526000D+01 0.1420000D+02 0.7438000D+01 0.3526000D+01 0.1595000D+01
EXPONENTS  0.1595000D+01 0.1595000D+01 0.8462000D+00 0.8462000D+00 0.8462000D+00
EXPONENTS  0.3186000D+00 0.3186000D+00 0.3186000D+00 0.1096000D+00 0.1096000D+00
EXPONENTS  0.1096000D+00 0.1348000D+03 0.3639000D+02 0.1216000D+02 0.4341000D+01
EXPONENTS  0.1348000D+03 0.3639000D+02 0.1216000D+02 0.4341000D+01 0.1348000D+03
EXPONENTS  0.3639000D+02 0.1216000D+02 0.4341000D+01 0.1348000D+03 0.3639000D+02
EXPONENTS  0.1216000D+02 0.4341000D+01 0.1348000D+03 0.3639000D+02 0.1216000D+02
EXPONENTS  0.4341000D+01 0.1348000D+03 0.3639000D+02 0.1216000D+02 0.4341000D+01
EXPONENTS  0.1535000D+01 0.1535000D+01 0.1535000D+01 0.1535000D+01 0.1535000D+01
EXPONENTS  0.1535000D+01 0.4510000D+00 0.4510000D+00 0.4510000D+00 0.4510000D+00
EXPONENTS  0.4510000D+00 0.4510000D+00 0.1058190D+06 0.1587200D+05 0.3619650D+04
EXPONENTS  0.1030800D+04 0.3399080D+03 0.1245380D+03 0.1245380D+03 0.4951350D+02
EXPONENTS  0.2080560D+02 0.6583460D+01 0.2564680D+01 0.5597630D+00 0.1832730D+00
EXPONENTS  0.4830000D-01 0.4830000D-01 0.4830000D-01 0.4830000D-01 0.5897760D+03
EXPONENTS  0.1398490D+03 0.4514130D+02 0.1687330D+02 0.2771520D+01 0.5897760D+03
EXPONENTS  0.1398490D+03 0.4514130D+02 0.1687330D+02 0.2771520D+01 0.5897760D+03
EXPONENTS  0.1398490D+03 0.4514130D+02 0.1687330D+02 0.2771520D+01 0.6741100D+01
EXPONENTS  0.2771520D+01 0.6741100D+01 0.2771520D+01 0.6741100D+01 0.2771520D+01
EXPONENTS  0.1023870D+01 0.1023870D+01 0.1023870D+01 0.3813680D+00 0.3813680D+00
EXPONENTS  0.3813680D+00 0.1094370D+00 0.1094370D+00 0.1094370D+00 0.7500000D+00
EXPONENTS  0.7500000D+00 0.7500000D+00 0.7500000D+00 0.7500000D+00 0.7500000D+00
MO    1     MO 0.0        OCC NO =    2.0000000  ORB. ENERGY = -482.573378
 -0.22336968D-06 -0.41582339D-06 -0.68402557D-06 -0.91853154D-06 -0.86483207D-06
 -0.71069009D-07  0.56358114D-06  0.14975406D-05 -0.20187894D-08  0.86287981D-07
  0.80744290D-07  0.62539574D-07 -0.35243676D-06 -0.32979397D-06 -0.25543818D-06
 -0.15271223D-05 -0.14290103D-05 -0.11068237D-05 -0.19869773D-05 -0.13297006D-06
  0.54557349D-06  0.23643928D-05  0.24101061D-05  0.16000051D-06 -0.65325085D-06
 -0.28305686D-05  0.19994585D-05  0.11754689D-06 -0.48108742D-06 -0.20847729D-05
 -0.69154570D-06 -0.59253274D-06  0.12840784D-05 -0.51402685D-07 -0.22375903D-06
  0.91491428D-06 -0.42477898D-07 -0.76624068D-07 -0.11296407D-06 -0.53164086D-06
 -0.21052196D-05 -0.13614216D-05  0.49104913D-08  0.38076560D-06  0.88696446D-06
 -0.42560554D-07 -0.76773168D-07 -0.11318389D-06 -0.53124945D-06 -0.21049832D-05
 -0.13616331D-05  0.67548226D-07  0.81472998D-07  0.95880692D-06 -0.42321428D-07
 -0.76341818D-07 -0.11254796D-06 -0.53243149D-06 -0.21057693D-05 -0.13610787D-05
 -0.22805058D-06  0.17647731D-06  0.92241902D-06  0.38584357D+01  0.71955605D+01
  0.12109067D+02  0.19065833D+02  0.25289923D+02  0.16475086D+02  0.96359560D+01
  0.16238833D+02  0.34607837D+01  0.81722716D-01 -0.11307551D-01  0.24829865D-02
 -0.64103589D-03  0.70255783D-04 -0.21138171D-04  0.59958766D-06 -0.69958585D-08
  0.28445377D-07  0.12323807D-06 -0.13030532D-04 -0.17427407D-04 -0.20129999D-04
  0.53647637D-04  0.71749887D-04  0.82876656D-04  0.23243865D-03  0.31087011D-03
  0.35907896D-03 -0.25636558D-05 -0.12091902D-05 -0.21369883D-06  0.10542385D-04
  0.49724881D-05  0.87878225D-06  0.45682916D-04  0.21547095D-04  0.38079939D-05
  0.16169210D-06  0.33778248D-06  0.21524301D-06 -0.66428186D-06 -0.13877164D-05
 -0.88428580D-06 -0.28788042D-05 -0.60139588D-05 -0.38322372D-05 -0.55007246D-06
  0.22593922D-05  0.97917088D-05  0.43779449D-06 -0.17980545D-05 -0.77923793D-05
 -0.20817698D-06  0.85481807D-06  0.37045830D-05  0.13737798D-06 -0.56389342D-06
 -0.24437617D-05  0.34604633D-04  0.25795322D-04  0.11957321D-04  0.27959108D-05
  0.29639270D-04  0.22093993D-04  0.10241584D-04  0.23947301D-05 -0.64243903D-04
 -0.47889315D-04 -0.22198905D-04 -0.51906408D-05  0.25661708D-05  0.19129000D-05
  0.88671732D-06  0.20733595D-06  0.11138392D-04  0.83028887D-05  0.38487716D-05
  0.89993588D-06 -0.45760944D-04 -0.34111568D-04 -0.15812284D-04 -0.36972945D-05
 -0.29038420D-05 -0.24871558D-05  0.53909978D-05 -0.21549071D-06 -0.93456880D-06
  0.38400478D-05  0.73354639D-06  0.62828632D-06 -0.13618327D-05  0.54447967D-07
  0.23609585D-06 -0.97004846D-06  0.12174399D-06  0.22734549D-06  0.38700518D-06
  0.59992288D-06  0.80785810D-06  0.61230597D-06 -0.44290411D-06 -0.10317073D-05
 -0.25165769D-06  0.16448178D-05 -0.15572512D-05  0.98925946D-06 -0.88771693D-06
  0.70052673D-05  0.42236699D-07 -0.17230896D-06 -0.74661545D-06 -0.32915184D-06
 -0.42150009D-06 -0.45100058D-06 -0.35886702D-06 -0.82595167D-07  0.13390300D-05
  0.17147140D-05  0.18347256D-05  0.14599150D-05  0.33600726D-06  0.58013796D-05
  0.74290394D-05  0.79489925D-05  0.63251168D-05  0.14557595D-05  0.29072439D-06
 -0.60412600D-07 -0.11826421D-05  0.24575333D-06 -0.51238184D-05  0.10647307D-05
  0.70236285D-07 -0.28570860D-06 -0.12378322D-05 -0.23356976D-07  0.94891191D-07
  0.41108958D-06  0.60736237D-07 -0.24822932D-06 -0.10756186D-05 -0.46784170D-06
 -0.40073309D-06  0.86857479D-06 -0.34967523D-07 -0.15159672D-06  0.61883407D-06
MO    2     MO 0.0        OCC NO =    2.0000000  ORB. ENERGY = -101.377305
  0.44908254D-06  0.83600883D-06  0.13752267D-05  0.18466986D-05  0.17387363D-05
  0.14288354D-06 -0.10020481D-05 -0.26626295D-05  0.35894106D-08 -0.82533933D-06
 -0.77231426D-06 -0.59818725D-06  0.33761809D-05  0.31592735D-05  0.24469795D-05
  0.14630674D-04  0.13690706D-04  0.10603981D-04 -0.13336773D-04  0.60657910D-06
 -0.24773467D-05 -0.10736448D-04  0.42518569D-04 -0.13179640D-05  0.53902843D-05
  0.23357617D-04 -0.74242064D-04  0.12506680D-05 -0.51147812D-05 -0.22163873D-04
 -0.30661515D-05 -0.26275423D-05  0.56936937D-05 -0.22862203D-06 -0.99387272D-06
  0.40565543D-05  0.12216203D-05  0.22036287D-05  0.32487295D-05 -0.16095060D-04
  0.14323100D-05  0.78616827D-06 -0.11621962D-05 -0.77303962D-05 -0.98745864D-05
  0.12216007D-05  0.22035934D-05  0.32486774D-05 -0.16094881D-04  0.14323153D-05
  0.78621022D-06 -0.30832554D-05  0.15150394D-05 -0.12116738D-04  0.12217354D-05
  0.22038363D-05  0.32490356D-05 -0.16096085D-04  0.14319059D-05  0.78646548D-06
  0.61061936D-05 -0.13820039D-05 -0.10931660D-04  0.60760190D-07  0.11331111D-06
  0.19068587D-06  0.30023660D-06  0.39824962D-06  0.25943918D-06 -0.20968363D-05
 -0.35336582D-05 -0.75308529D-06  0.12741495D-04 -0.17931188D-04  0.16861717D-04
 -0.11414608D-04  0.62314252D-05 -0.81090392D-05 -0.13238357D-04  0.10100984D-06
 -0.41584343D-06 -0.18022565D-05  0.11098012D-05  0.14842799D-05  0.17144578D-05
 -0.45665599D-05 -0.61074481D-05 -0.70545737D-05 -0.19791573D-04 -0.26469817D-04
 -0.30574681D-04 -0.34985496D-05 -0.16501482D-05 -0.29162883D-06  0.14396495D-04
  0.67903423D-05  0.12000496D-05  0.62394823D-04  0.29429539D-04  0.52010494D-05
  0.42832406D-06  0.89478932D-06  0.57018098D-06 -0.17625613D-05 -0.36820742D-05
 -0.23463051D-05 -0.76389929D-05 -0.15958219D-04 -0.10168956D-04 -0.15384760D-05
  0.63313355D-05  0.27440271D-04  0.11243890D-05 -0.46280555D-05 -0.20058315D-04
 -0.31045072D-06  0.12796061D-05  0.55461651D-05  0.66123795D-07 -0.27420550D-06
 -0.11887007D-05 -0.12070353D-03 -0.89975998D-04 -0.41708022D-04 -0.97523443D-05
 -0.10338027D-03 -0.77062726D-04 -0.35722125D-04 -0.83526968D-05  0.22408380D-03
  0.16703872D-03  0.77430148D-04  0.18105041D-04 -0.90039614D-05 -0.67118205D-05
 -0.31112382D-05 -0.72748273D-06 -0.39003736D-04 -0.29074544D-04 -0.13477391D-04
 -0.31513401D-05  0.15963843D-03  0.11899924D-03  0.55161631D-04  0.12898123D-04
  0.95654214D-05  0.81926122D-05 -0.17758034D-04  0.71350096D-06  0.30908325D-05
 -0.12650898D-04 -0.25088035D-05 -0.21487586D-05  0.46575621D-05 -0.18709795D-06
 -0.81056465D-06  0.33180523D-05  0.12702099D+01  0.23719978D+01  0.40377992D+01
  0.62592654D+01  0.84287473D+01  0.63884638D+01  0.23318167D+01  0.54317678D+01
  0.13249360D+01  0.43903937D-01 -0.56992260D-02  0.68010537D-03 -0.21275490D-03
  0.11385293D-03  0.10570687D-05 -0.43193419D-05 -0.18716625D-04  0.32009364D-04
  0.40990048D-04  0.43858911D-04  0.34899106D-04  0.80322162D-05 -0.13072302D-03
 -0.16739923D-03 -0.17911538D-03 -0.14252444D-03 -0.32802762D-04 -0.56645201D-03
 -0.72537820D-03 -0.77614690D-03 -0.61759018D-03 -0.14214169D-03 -0.49960617D-05
  0.10381828D-05  0.20394748D-04 -0.42380336D-05  0.88375451D-04 -0.18364440D-04
 -0.18794408D-05  0.76731849D-05  0.33249608D-04  0.80934431D-07 -0.32944694D-06
 -0.14275594D-05 -0.95379888D-06  0.38978978D-05  0.16890506D-04  0.10265184D-04
  0.87923617D-05 -0.19057546D-04  0.76655435D-06  0.33217458D-05 -0.13577099D-04
MO    3     MO 0.0        OCC NO =    2.0000000  ORB. ENERGY =  -62.226539
 -0.22443149D-05 -0.41780005D-05 -0.68727715D-05 -0.92289787D-05 -0.86894313D-05
 -0.71406842D-06  0.68230822D-05  0.18130207D-04 -0.24440786D-07  0.11703917D-05
  0.10951983D-05  0.84827340D-06 -0.47804845D-05 -0.44733556D-05 -0.34647869D-05
 -0.20714083D-04 -0.19383278D-04 -0.15013098D-04 -0.27711837D-04 -0.18591416D-05
  0.76278414D-05  0.33057358D-04  0.34010040D-04  0.22593733D-05 -0.92245489D-05
 -0.39970433D-04  0.28978859D-04  0.16695058D-05 -0.68328234D-05 -0.29609770D-04
 -0.96454056D-05 -0.82644959D-05  0.17909902D-04 -0.71682193D-06 -0.31208152D-05
  0.12760936D-04 -0.62123202D-06 -0.11206139D-05 -0.16520803D-05 -0.74325510D-05
 -0.30011887D-04 -0.19484247D-04  0.50799090D-07  0.52439730D-05  0.12345256D-04
 -0.62237350D-06 -0.11226730D-05 -0.16551159D-05 -0.74270655D-05 -0.30008528D-04
 -0.19487268D-04  0.90299876D-06  0.11727407D-05  0.13322222D-04 -0.61907851D-06
 -0.11167293D-05 -0.16463534D-05 -0.74435744D-05 -0.30019761D-04 -0.19479345D-04
 -0.31173994D-05  0.24655058D-05  0.12828086D-04 -0.12742134D+01 -0.23762686D+01
 -0.39989094D+01 -0.62963184D+01 -0.83517679D+01 -0.54407479D+01 -0.53839942D+01
 -0.90732860D+01 -0.19336783D+01  0.58199058D+01  0.24291828D+01  0.10311736D+00
 -0.10943320D-01  0.10185079D-02 -0.30326108D-03  0.87395714D-05 -0.10006569D-06
  0.40687126D-06  0.17627540D-05 -0.29976263D-03 -0.40091114D-03 -0.46308330D-03
  0.12341019D-02  0.16505233D-02  0.19064818D-02  0.53470412D-02  0.71512862D-02
  0.82602872D-02 -0.42913392D-03 -0.20240803D-03 -0.35771344D-04  0.17666162D-02
  0.83325344D-03  0.14725994D-03  0.76543340D-02  0.36102918D-02  0.63804282D-03
  0.72615442D-06  0.15169711D-05  0.96664998D-06 -0.29736383D-05 -0.62120717D-05
 -0.39584795D-05 -0.12892014D-04 -0.26932031D-04 -0.17161729D-04 -0.65430281D-05
  0.26858853D-04  0.11641056D-03  0.57509669D-05 -0.23612002D-04 -0.10233401D-03
 -0.28967110D-05  0.11893424D-04  0.51543938D-04  0.19427195D-05 -0.79741197D-05
 -0.34557743D-04 -0.68052001D-04 -0.50727985D-04 -0.23514759D-04 -0.54983194D-05
 -0.58251112D-04 -0.43422110D-04 -0.20128150D-04 -0.47064482D-05  0.12630311D-03
  0.94150095D-04  0.43642909D-04  0.10204768D-04 -0.54733049D-05 -0.40799642D-05
 -0.18912515D-05 -0.44222033D-06 -0.21642578D-04 -0.16133021D-04 -0.74783990D-05
 -0.17486305D-05  0.90058687D-04  0.67132423D-04  0.31118972D-04  0.72763683D-05
 -0.35235940D-04 -0.30180389D-04  0.65416329D-04 -0.26087599D-05 -0.11343894D-04
  0.46594900D-04  0.99706332D-05  0.85399482D-05 -0.18510581D-04  0.73979666D-06
  0.32092928D-05 -0.13185193D-04  0.36437249D-06  0.68043144D-06  0.11582834D-05
  0.17955333D-05  0.24178710D-05  0.18325952D-05 -0.37530835D-05 -0.87424873D-05
 -0.21324984D-05  0.19840486D-04 -0.20304852D-04  0.13731744D-04 -0.12646391D-04
  0.99419051D-04  0.59959348D-06 -0.24460971D-05 -0.10598946D-04 -0.37524282D-05
 -0.48052255D-05 -0.51415398D-05 -0.40911901D-05 -0.94160931D-06  0.15265093D-04
  0.19547933D-04  0.20916079D-04  0.16643196D-04  0.38305207D-05  0.66136340D-04
  0.84691833D-04  0.90619354D-04  0.72106999D-04  0.16595812D-04  0.30580453D-05
 -0.63546256D-06 -0.12440060D-04  0.25850475D-05 -0.53896821D-04  0.11199773D-04
  0.88400141D-06 -0.35958215D-05 -0.15578864D-04 -0.31260618D-06  0.12699189D-05
  0.55015487D-05  0.85825436D-06 -0.35077272D-05 -0.15199567D-04 -0.65952013D-05
 -0.56491634D-05  0.12244365D-04 -0.49293933D-06 -0.21370460D-05  0.87237429D-05
MO    4     MO 0.0        OCC NO =    2.0000000  ORB. ENERGY =  -56.044596
  0.19337135D-05  0.35997872D-05  0.59216160D-05  0.79517365D-05  0.74868597D-05
  0.61524510D-06 -0.50800256D-05 -0.13498579D-04  0.18197028D-07  0.14720610D-05
  0.13774864D-05  0.10669164D-05 -0.60590521D-05 -0.56697800D-05 -0.43914637D-05
 -0.26262986D-04 -0.24575684D-04 -0.19034817D-04  0.40235038D-05 -0.14591136D-05
  0.60528679D-05  0.26242897D-04  0.69977332D-04  0.17201910D-05 -0.70544896D-05
 -0.30574581D-04  0.58899502D-04 -0.27562630D-05  0.11284299D-04  0.48900435D-04
  0.17727601D-04  0.15177045D-04 -0.32904646D-04  0.13303315D-05  0.57309623D-05
 -0.23441425D-04  0.11169651D-04  0.20148456D-04  0.29704135D-04 -0.87583327D-04
  0.93120550D-05 -0.71553051D-05 -0.24823975D-04 -0.52235641D-04  0.64707635D-04
  0.11168558D-04  0.20146485D-04  0.29701229D-04 -0.87584143D-04  0.93122337D-05
 -0.71562618D-05 -0.48491843D-04  0.61672284D-04  0.37087840D-04  0.11171718D-04
  0.20152185D-04  0.29709633D-04 -0.87583950D-04  0.93076403D-05 -0.71474048D-05
  0.64704207D-04  0.25980166D-04  0.51706374D-04  0.86721173D-04  0.16172550D-03
  0.27216015D-03  0.42851857D-03  0.56840958D-03  0.37028965D-03  0.37981089D-03
  0.64006994D-03  0.13641027D-03 -0.46593603D-03 -0.84876388D-04 -0.86494286D-04
  0.56976092D-04 -0.22207449D-04  0.15759173D-04  0.59966269D-04 -0.71785306D-07
  0.29062056D-06  0.12606475D-05 -0.47871778D+01 -0.64025088D+01 -0.73953917D+01
  0.19694523D+02  0.26340020D+02  0.30424755D+02  0.85338708D+02  0.11413443D+03
  0.13183408D+03 -0.61554628D+01 -0.29033247D+01 -0.51310132D+00  0.25323669D+02
  0.11944323D+02  0.21109068D+01  0.10973047D+03  0.51756170D+02  0.91468098D+01
 -0.54679232D-02 -0.11422751D-01 -0.72788482D-02  0.22495064D-01  0.46993258D-01
  0.29945219D-01  0.97473793D-01  0.20362739D+00  0.12975620D+00  0.20519219D-02
 -0.84414328D-02 -0.36577756D-01 -0.57687056D-03  0.23730909D-02  0.10282906D-01
  0.60038609D-04 -0.24694292D-03 -0.10700405D-02 -0.67121601D-05  0.27600061D-04
  0.11959625D-03 -0.13530366D-03 -0.10085937D-03 -0.46752967D-04 -0.10931974D-04
 -0.11579289D-03 -0.86315463D-04 -0.40011196D-04 -0.93555852D-05  0.25109655D-03
  0.18717483D-03  0.86764163D-04  0.20287560D-04 -0.10080365D-04 -0.75142041D-05
 -0.34831799D-05 -0.81445171D-06 -0.43135374D-04 -0.32154390D-04 -0.14905042D-04
 -0.34851593D-05  0.17896312D-03  0.13340443D-03  0.61839103D-04  0.14459478D-04
 -0.19464622D-04 -0.16676009D-04  0.36140631D-04 -0.14438197D-05 -0.62876689D-05
  0.25742545D-04  0.63862861D-05  0.54706215D-05 -0.11856908D-04  0.47497112D-06
  0.20613417D-05 -0.84463020D-05 -0.43297257D-06 -0.80853565D-06 -0.13763523D-05
 -0.21335767D-05 -0.28730814D-05 -0.21776162D-05  0.48244014D-05  0.11238031D-04
  0.27412202D-05 -0.26146425D-04  0.27151837D-04 -0.21465300D-04  0.25893418D-04
 -0.13644330D-03 -0.89525075D-06  0.36474189D-05  0.15803950D-04  0.53124641D-05
  0.68029518D-05  0.72790855D-05  0.57920630D-05  0.13330743D-05 -0.21761170D-04
 -0.27866577D-04 -0.29816939D-04 -0.23725726D-04 -0.54606029D-05 -0.94297128D-04
 -0.12075353D-03 -0.12920499D-03 -0.10281009D-03 -0.23662292D-04 -0.42443043D-05
  0.88196747D-06  0.17386147D-04 -0.36128455D-05  0.75338962D-04 -0.15655455D-04
 -0.13504551D-05  0.55313572D-05  0.23968875D-04  0.74431351D-06 -0.30481512D-05
 -0.13208555D-04 -0.30888115D-06  0.12687275D-05  0.54983719D-05 -0.54395110D-06
 -0.46560806D-06  0.10095592D-05 -0.40499706D-07 -0.17472356D-06  0.71927053D-06
MO    5     MO 0.0        OCC NO =    2.0000000  ORB. ENERGY =  -56.044115
  0.61913332D-09  0.11525741D-08  0.18959736D-08  0.25459744D-08  0.23971308D-08
  0.19698820D-09 -0.21060651D-08 -0.55962094D-08  0.75440812D-11  0.12921566D-04
  0.12091402D-04  0.93652583D-05 -0.12099050D-04 -0.11321730D-04 -0.87691175D-05
  0.35257690D-05  0.32992511D-05  0.25553975D-05  0.66490089D-08 -0.10479971D-04
  0.98183514D-05 -0.28626361D-05 -0.12100103D-07  0.76368244D-05 -0.71471315D-05
  0.20852186D-05  0.66364722D-08 -0.22854844D-05  0.21391854D-05 -0.61951997D-06
 -0.54998581D-06  0.59612383D-06 -0.46138019D-07 -0.57428577D-05  0.70709328D-06
 -0.82291829D-07  0.24330089D-06  0.43888010D-06  0.64702495D-06 -0.49134388D-06
 -0.88304813D-05  0.11107709D-04 -0.11523984D-04  0.50241749D-05  0.82324658D-05
 -0.56332760D-06 -0.10161626D-05 -0.14980915D-05  0.11609335D-05  0.20378842D-04
 -0.25625980D-04  0.14692830D-05 -0.67464807D-05 -0.21544984D-04  0.31862382D-06
  0.57475192D-06  0.84733583D-06 -0.65078469D-06 -0.11536021D-04  0.14513517D-04
 -0.19578840D-05  0.12971678D-04  0.10017858D-04  0.92817894D-09  0.17309522D-08
  0.29129371D-08  0.45864453D-08  0.60837023D-08  0.39632196D-08  0.36238436D-08
  0.61070217D-08  0.13015147D-08 -0.27409266D-08 -0.37045181D-08  0.17443879D-08
 -0.10487633D-08 -0.10300580D-08  0.18872430D-08  0.44730550D-08 -0.61443821D-05
  0.57502004D-05 -0.16711403D-05  0.62817371D+02  0.84013752D+02  0.97042366D+02
 -0.58783667D+02 -0.78618961D+02 -0.90810966D+02  0.17089949D+02  0.22856588D+02
  0.26401123D+02  0.80772111D+02  0.38097487D+02  0.67329262D+01 -0.75585476D+02
 -0.35651126D+02 -0.63005835D+01  0.21974675D+02  0.10364715D+02  0.18317444D+01
  0.71666577D-01  0.14971488D+00  0.95401877D-01 -0.67064643D-01 -0.14010123D+00
 -0.89275825D-01  0.19497437D-01  0.40731073D-01  0.25954806D-01 -0.26672104D-01
  0.24959419D-01 -0.72563251D-02  0.73833870D-02 -0.69092868D-02  0.20086876D-02
 -0.72885774D-03  0.68205834D-03 -0.19828579D-03  0.73468648D-04 -0.68751686D-04
  0.19987858D-04 -0.56268340D-04 -0.41944094D-04 -0.19443021D-04 -0.45462485D-05
 -0.21913817D-03 -0.16335211D-03 -0.75721231D-04 -0.17705455D-04  0.27540651D-03
  0.20529620D-03  0.95164252D-04  0.22251704D-04  0.29273422D-03  0.21821279D-03
  0.10115169D-03  0.23651711D-04  0.99555921D-03  0.74211943D-03  0.34400656D-03
  0.80437054D-04 -0.88322262D-03 -0.65838040D-03 -0.30518966D-03 -0.71360724D-04
  0.67874674D-06  0.28238158D-05 -0.35025626D-05 -0.41366561D-05 -0.12569107D-04
  0.11193348D-04 -0.78777766D-07 -0.34985155D-06  0.42862931D-06  0.55294120D-06
  0.15262289D-05 -0.13637617D-05 -0.23103910D-10 -0.43144385D-10 -0.73443729D-10
 -0.11385009D-09 -0.15331090D-09 -0.11620008D-09  0.25597827D-09  0.59627950D-09
  0.14544660D-09 -0.14209450D-08  0.15504463D-08 -0.15125511D-08  0.20896648D-08
 -0.11568575D-07 -0.49583876D-06  0.46457512D-06 -0.13350490D-06 -0.28271047D-04
 -0.36202893D-04 -0.38736708D-04 -0.30823302D-04 -0.70941481D-05  0.26455275D-04
  0.33877681D-04  0.36248755D-04  0.28843606D-04  0.66385103D-05 -0.77248173D-05
 -0.98921251D-05 -0.10584468D-04 -0.84221987D-05 -0.19384141D-05  0.22704670D-04
 -0.47180360D-05 -0.21246465D-04  0.44150206D-05  0.62037024D-05 -0.12891309D-05
  0.71614547D-05 -0.67014614D-05  0.19569197D-05 -0.36998071D-05  0.34622165D-05
 -0.10109153D-05  0.13151312D-05 -0.12306505D-05  0.36035037D-06  0.83834361D-07
  0.26198681D-07 -0.11003304D-06  0.50279034D-06 -0.48854460D-06  0.37320244D-06
MO    6     MO 0.0        OCC NO =    2.0000000  ORB. ENERGY =  -56.044115
  0.31546840D-09  0.58727371D-09  0.96605973D-09  0.12972561D-08  0.12214155D-08
  0.10037184D-09 -0.11643109D-08 -0.30937921D-08  0.41706479D-11  0.12545709D-04
  0.11739693D-04  0.90928460D-05  0.12766765D-04  0.11946547D-04  0.92530623D-05
 -0.22335336D-05 -0.20900372D-05 -0.16188146D-05  0.43741845D-08 -0.10169577D-04
 -0.10355155D-04  0.18103917D-05 -0.12490378D-07  0.74178592D-05  0.75459691D-05
 -0.13174675D-05  0.40199119D-08 -0.22202544D-05 -0.22577103D-05  0.39546864D-06
 -0.28242477D-05  0.26090577D-05  0.21518998D-06  0.98058312D-06 -0.10891936D-05
 -0.16975308D-05 -0.51043227D-06 -0.92074699D-06 -0.13574238D-05  0.10586751D-05
  0.18426021D-04 -0.23174578D-04 -0.36345174D-05 -0.17184518D-05 -0.20776942D-04
  0.41981761D-07  0.75729108D-07  0.11164467D-06 -0.76009588D-07 -0.15653507D-05
  0.19685664D-05 -0.95986547D-05 -0.77890673D-05  0.30297476D-05  0.46534945D-06
  0.83942401D-06  0.12375323D-05 -0.95311983D-06 -0.16854822D-04  0.21202847D-04
  0.15744667D-05 -0.23664528D-05  0.19805049D-04  0.31402024D-08  0.58561340D-08
  0.98550094D-08  0.15516800D-07  0.20582299D-07  0.13408311D-07  0.12475858D-07
  0.21024731D-07  0.44807434D-08 -0.10000676D-07 -0.12105029D-07  0.63725506D-08
 -0.48329268D-08  0.73211205D-09  0.43995509D-09  0.16746241D-09 -0.59692929D-05
 -0.60693700D-05  0.10657169D-05  0.61030062D+02  0.81623354D+02  0.94281272D+02
  0.62050045D+02  0.82987509D+02  0.95856975D+02 -0.10896395D+02 -0.14573151D+02
 -0.16833114D+02  0.78473946D+02  0.37013520D+02  0.65413579D+01  0.79785465D+02
  0.37632120D+02  0.66506822D+01 -0.14010851D+02 -0.66084471D+01 -0.11679034D+01
  0.69627485D-01  0.14545513D+00  0.92687457D-01  0.70791156D-01  0.14788609D+00
  0.94236525D-01 -0.12431402D-01 -0.25969790D-01 -0.16548566D-01 -0.25913221D-01
 -0.26346304D-01  0.46266213D-02  0.71733150D-02  0.72932002D-02 -0.12807629D-02
 -0.70812002D-03 -0.71995409D-03  0.12643774D-03  0.71377874D-04  0.72571206D-04
 -0.12745115D-04 -0.52205344D-04 -0.38915416D-04 -0.18039089D-04 -0.42179752D-05
  0.22778737D-03  0.16979948D-03  0.78709885D-04  0.18404275D-04 -0.17558203D-03
 -0.13088406D-03 -0.60670796D-04 -0.14186299D-04  0.16970668D-03  0.12650440D-03
  0.58640622D-04  0.13711596D-04  0.99381463D-03  0.74081898D-03  0.34340374D-03
  0.80296100D-04  0.96073018D-03  0.71615684D-03  0.33197171D-03  0.77623013D-04
  0.45844251D-06 -0.26913450D-05  0.22329025D-05 -0.20770218D-05 -0.12672817D-04
 -0.12310212D-04 -0.32762074D-07  0.30581475D-06 -0.27305267D-06  0.24500097D-06
  0.15541086D-05  0.15165397D-05  0.59413909D-11  0.11094990D-10  0.18886755D-10
  0.29277636D-10  0.39425360D-10  0.29881960D-10 -0.67205193D-10 -0.15654875D-09
 -0.38185925D-10  0.34031295D-09 -0.29970837D-09  0.17545617D-10  0.22855688D-09
 -0.23380855D-08 -0.48141335D-06 -0.48968609D-06  0.86372169D-07 -0.27463318D-04
 -0.35168544D-04 -0.37629965D-04 -0.29942653D-04 -0.68914619D-05 -0.27933996D-04
 -0.35771277D-04 -0.38274883D-04 -0.30455822D-04 -0.70095705D-05  0.48830667D-05
  0.62530807D-05  0.66907293D-05  0.53239003D-05  0.12253242D-05  0.22055956D-04
 -0.45832330D-05  0.22433961D-04 -0.46617826D-05 -0.39217131D-05  0.81493295D-06
  0.69568521D-05  0.70760934D-05 -0.12368635D-05 -0.35940658D-05 -0.36556843D-05
  0.63908184D-06  0.12774427D-05  0.12997024D-05 -0.22646396D-06  0.32926198D-06
 -0.37771697D-06  0.48454993D-07 -0.17660672D-06 -0.29330516D-06 -0.21356943D-06
MO    7     MO 0.0        OCC NO =    2.0000000  ORB. ENERGY =  -10.086961
  0.43813840D+00  0.81563531D+00  0.13417124D+01  0.18016946D+01  0.16963634D+01
  0.13940147D+00  0.37092858D+00  0.98562668D+00 -0.13286936D-02 -0.11081459D-03
 -0.10369515D-03 -0.80315905D-04  0.45449038D-03  0.42529102D-03  0.32940433D-03
  0.19695433D-02  0.18430073D-02  0.14274804D-02  0.78639740D-02  0.59415852D-04
 -0.24338477D-03 -0.10547350D-02 -0.14341077D-02  0.22568675D-05 -0.91967870D-05
 -0.39855388D-04 -0.59118355D-03 -0.46611353D-05  0.19082819D-04  0.82697241D-04
  0.73998498D-03  0.63388187D-03 -0.13738669D-02  0.55163946D-04  0.23933879D-03
 -0.97884110D-03  0.47292598D-04  0.85309100D-04  0.12576810D-03 -0.12364466D-02
  0.69900147D-03  0.95399795D-05 -0.70707704D-03 -0.22185574D-02  0.57049417D-04
  0.47289576D-04  0.85303647D-04  0.12576006D-03 -0.12364816D-02  0.69901547D-03
  0.95317073D-05 -0.14936259D-02  0.15663698D-02 -0.86081704D-03  0.47299601D-04
  0.85321732D-04  0.12578672D-03 -0.12364066D-02  0.69898183D-03  0.95665572D-05
  0.22671092D-02  0.38020250D-03 -0.37487120D-03 -0.52200812D-06 -0.97348804D-06
 -0.16382367D-05 -0.25794182D-05 -0.34214760D-05 -0.22289159D-05  0.10259670D-04
  0.17289938D-04  0.36847927D-05 -0.92383644D-04  0.16580824D-03 -0.20961453D-03
  0.17602505D-03 -0.10932909D-03  0.90872601D-04  0.15713013D-03 -0.12401392D-05
  0.50861051D-05  0.22041361D-04 -0.38768489D-05 -0.51850089D-05 -0.59890853D-05
  0.15649430D-04  0.20929996D-04  0.24175760D-04  0.67772274D-04  0.90640582D-04
  0.10469687D-03 -0.40676665D-05 -0.19185814D-05 -0.33906875D-06  0.15775623D-04
  0.74408307D-05  0.13150096D-05  0.68198960D-04  0.32167155D-04  0.56848652D-05
  0.21696083D-07  0.45324148D-07  0.28881622D-07  0.37219129D-07  0.77752529D-07
  0.49545756D-07  0.18440394D-06  0.38522859D-06  0.24547679D-06  0.37737227D-05
 -0.15989473D-04 -0.69385697D-04 -0.55716070D-05  0.23236774D-04  0.10076972D-03
  0.47697133D-05 -0.19673093D-04 -0.85276434D-04 -0.23960014D-05  0.98739524D-05
  0.42799026D-04 -0.48740002D-03 -0.36332247D-03 -0.16841671D-03 -0.39379900D-04
 -0.41756619D-03 -0.31126625D-03 -0.14428625D-03 -0.33737616D-04  0.90496621D-03
  0.67458872D-03  0.31270296D-03  0.73117516D-04 -0.36158152D-04 -0.26953362D-04
 -0.12494125D-04 -0.29214287D-05 -0.15720957D-03 -0.11718869D-03 -0.54322358D-04
 -0.12701881D-04  0.64466087D-03  0.48054938D-03  0.22275679D-03  0.52085924D-04
  0.44835187D-04  0.38412154D-04 -0.83247341D-04  0.33242976D-05  0.14457526D-04
 -0.59301390D-04 -0.77589143D-05 -0.66495968D-05  0.14408511D-04 -0.57124504D-06
 -0.24951922D-05  0.10262906D-04 -0.53100644D-05 -0.99160470D-05 -0.16879867D-04
 -0.26166622D-04 -0.35236059D-04 -0.26706731D-04 -0.15923545D-04 -0.37092538D-04
 -0.90477430D-05  0.12859293D-04  0.29182635D-04 -0.11161772D-03  0.18906816D-03
 -0.15920777D-04 -0.40362237D-06  0.16292039D-05  0.70560338D-05 -0.17889973D-05
 -0.22909261D-05 -0.24512663D-05 -0.19505045D-05 -0.44891906D-06  0.72841353D-05
  0.93278034D-05  0.99806497D-05  0.79417328D-05  0.18278323D-05  0.31579098D-04
  0.40439065D-04  0.43269366D-04  0.34429997D-04  0.79242483D-05 -0.27415404D-05
  0.56969276D-06  0.11217541D-04 -0.23310077D-05  0.48599119D-04 -0.10098909D-04
 -0.75078725D-05  0.30693306D-04  0.13299769D-03  0.93809382D-05 -0.38346940D-04
 -0.16616581D-03  0.27984196D-05 -0.11421468D-04 -0.49491212D-04 -0.11104058D-03