 Single Point Energy
GAUSSIAN             31 MOL ORBITALS    210 PRIMITIVES        6 NUCLEI   B3LYP
  C    1    (CENTRE  1)  -0.33207820  0.72714617  1.89779835  CHARGE =  6.0
  H    2    (CENTRE  2)  -0.56323996 -1.28611082  2.10906832  CHARGE =  1.0
  H    3    (CENTRE  3)  -1.77182630  1.63510657  0.77798206  CHARGE =  1.0
  H    4    (CENTRE  4)   1.57085277  1.32521592  1.48250990  CHARGE =  1.0
  Br   5    (CENTRE  5)   0.53721278 -1.17521902 -3.06730620  CHARGE = 35.0
  Cl   6    (CENTRE  6)  -0.94386851  2.06444570  5.38819804  CHARGE = 17.0
CENTRE ASSIGNMENTS    1  1  1  1  1  1  1  1  1  1  1  1  1  1  1  1  1  1  1  1
CENTRE ASSIGNMENTS    1  1  1  1  1  1  1  1  1  1  1  1  1  1  1  1  2  2  2  2
CENTRE ASSIGNMENTS    2  2  2  2  2  3  3  3  3  3  3  3  3  3  4  4  4  4  4  4
CENTRE ASSIGNMENTS    4  4  4  5  5  5  5  5  5  5  5  5  5  5  5  5  5  5  5  5
CENTRE ASSIGNMENTS    5  5  5  5  5  5  5  5  5  5  5  5  5  5  5  5  5  5  5  5
CENTRE ASSIGNMENTS    5  5  5  5  5  5  5  5  5  5  5  5  5  5  5  5  5  5  5  5
CENTRE ASSIGNMENTS    5  5  5  5  5  5  5  5  5  5  5  5  5  5  5  5  5  5  5  5
CENTRE ASSIGNMENTS    5  5  5  5  5  5  5  5  5  5  5  5  5  5  5  5  5  6  6  6
CENTRE ASSIGNMENTS    6  6  6  6  6  6  6  6  6  6  6  6  6  6  6  6  6  6  6  6
CENTRE ASSIGNMENTS    6  6  6  6  6  6  6  6  6  6  6  6  6  6  6  6  6  6  6  6
CENTRE ASSIGNMENTS    6  6  6  6  6  6  6  6  6  6
TYPE ASSIGNMENTS      1  1  1  1  1  1  1  1  1  2  2  2  3  3  3  4  4  4  1  2
TYPE ASSIGNMENTS      3  4  1  2  3  4  1  2  3  4  5  6  7  8  9 10  1  1  1  1
TYPE ASSIGNMENTS      1  1  2  3  4  1  1  1  1  1  1  2  3  4  1  1  1  1  1  1
TYPE ASSIGNMENTS      2  3  4  1  1  1  1  1  1  1  1  1  1  1  1  1  1  1  1  2
TYPE ASSIGNMENTS      3  4  2  2  2  3  3  3  4  4  4  2  2  2  3  3  3  4  4  4
TYPE ASSIGNMENTS      2  2  2  3  3  3  4  4  4  2  3  4  2  3  4  2  3  4  2  3
TYPE ASSIGNMENTS      4  5  5  5  5  6  6  6  6  7  7  7  7  8  8  8  8  9  9  9
TYPE ASSIGNMENTS      9 10 10 10 10  5  6  7  8  9 10  5  6  7  8  9 10  1  1  1
TYPE ASSIGNMENTS      1  1  1  1  1  1  1  1  1  1  1  2  3  4  2  2  2  2  2  3
TYPE ASSIGNMENTS      3  3  3  3  4  4  4  4  4  2  2  3  3  4  4  2  3  4  2  3
TYPE ASSIGNMENTS      4  2  3  4  5  6  7  8  9 10
EXPONENTS  0.4563240D+04 0.6820240D+03 0.1549730D+03 0.4445530D+02 0.1302900D+02
EXPONENTS  0.1827730D+01 0.2096420D+02 0.4803310D+01 0.1459330D+01 0.2096420D+02
EXPONENTS  0.4803310D+01 0.1459330D+01 0.2096420D+02 0.4803310D+01 0.1459330D+01
EXPONENTS  0.2096420D+02 0.4803310D+01 0.1459330D+01 0.4834560D+00 0.4834560D+00
EXPONENTS  0.4834560D+00 0.4834560D+00 0.1455850D+00 0.1455850D+00 0.1455850D+00
EXPONENTS  0.1455850D+00 0.4380000D-01 0.4380000D-01 0.4380000D-01 0.4380000D-01
EXPONENTS  0.6260000D+00 0.6260000D+00 0.6260000D+00 0.6260000D+00 0.6260000D+00
EXPONENTS  0.6260000D+00 0.3386500D+02 0.5094790D+01 0.1158790D+01 0.3258400D+00
EXPONENTS  0.1027410D+00 0.3600000D-01 0.7500000D+00 0.7500000D+00 0.7500000D+00
EXPONENTS  0.3386500D+02 0.5094790D+01 0.1158790D+01 0.3258400D+00 0.1027410D+00
EXPONENTS  0.3600000D-01 0.7500000D+00 0.7500000D+00 0.7500000D+00 0.3386500D+02
EXPONENTS  0.5094790D+01 0.1158790D+01 0.3258400D+00 0.1027410D+00 0.3600000D-01
EXPONENTS  0.7500000D+00 0.7500000D+00 0.7500000D+00 0.4397000D+06 0.6603000D+05
EXPONENTS  0.1514000D+05 0.4317000D+04 0.1414000D+04 0.5239000D+03 0.5239000D+03
EXPONENTS  0.2077000D+03 0.8654000D+02 0.3052000D+02 0.1298000D+02 0.4412000D+01
EXPONENTS  0.1862000D+01 0.3932000D+00 0.1400000D+00 0.3500000D-01 0.3500000D-01
EXPONENTS  0.3500000D-01 0.3500000D-01 0.2957000D+04 0.7003000D+03 0.2246000D+03
EXPONENTS  0.2957000D+04 0.7003000D+03 0.2246000D+03 0.2957000D+04 0.7003000D+03
EXPONENTS  0.2246000D+03 0.8259000D+02 0.3319000D+02 0.1420000D+02 0.8259000D+02
EXPONENTS  0.3319000D+02 0.1420000D+02 0.8259000D+02 0.3319000D+02 0.1420000D+02
EXPONENTS  0.1420000D+02 0.7438000D+01 0.3526000D+01 0.1420000D+02 0.7438000D+01
EXPONENTS  0.3526000D+01 0.1420000D+02 0.7438000D+01 0.3526000D+01 0.1595000D+01
EXPONENTS  0.1595000D+01 0.1595000D+01 0.8462000D+00 0.8462000D+00 0.8462000D+00
EXPONENTS  0.3186000D+00 0.3186000D+00 0.3186000D+00 0.1096000D+00 0.1096000D+00
EXPONENTS  0.1096000D+00 0.1348000D+03 0.3639000D+02 0.1216000D+02 0.4341000D+01
EXPONENTS  0.1348000D+03 0.3639000D+02 0.1216000D+02 0.4341000D+01 0.1348000D+03
EXPONENTS  0.3639000D+02 0.1216000D+02 0.4341000D+01 0.1348000D+03 0.3639000D+02
EXPONENTS  0.1216000D+02 0.4341000D+01 0.1348000D+03 0.3639000D+02 0.1216000D+02
EXPONENTS  0.4341000D+01 0.1348000D+03 0.3639000D+02 0.1216000D+02 0.4341000D+01
EXPONENTS  0.1535000D+01 0.1535000D+01 0.1535000D+01 0.1535000D+01 0.1535000D+01
EXPONENTS  0.1535000D+01 0.4510000D+00 0.4510000D+00 0.4510000D+00 0.4510000D+00
EXPONENTS  0.4510000D+00 0.4510000D+00 0.1058190D+06 0.1587200D+05 0.3619650D+04
EXPONENTS  0.1030800D+04 0.3399080D+03 0.1245380D+03 0.1245380D+03 0.4951350D+02
EXPONENTS  0.2080560D+02 0.6583460D+01 0.2564680D+01 0.5597630D+00 0.1832730D+00
EXPONENTS  0.4830000D-01 0.4830000D-01 0.4830000D-01 0.4830000D-01 0.5897760D+03
EXPONENTS  0.1398490D+03 0.4514130D+02 0.1687330D+02 0.2771520D+01 0.5897760D+03
EXPONENTS  0.1398490D+03 0.4514130D+02 0.1687330D+02 0.2771520D+01 0.5897760D+03
EXPONENTS  0.1398490D+03 0.4514130D+02 0.1687330D+02 0.2771520D+01 0.6741100D+01
EXPONENTS  0.2771520D+01 0.6741100D+01 0.2771520D+01 0.6741100D+01 0.2771520D+01
EXPONENTS  0.1023870D+01 0.1023870D+01 0.1023870D+01 0.3813680D+00 0.3813680D+00
EXPONENTS  0.3813680D+00 0.1094370D+00 0.1094370D+00 0.1094370D+00 0.7500000D+00
EXPONENTS  0.7500000D+00 0.7500000D+00 0.7500000D+00 0.7500000D+00 0.7500000D+00
MO    1     MO 0.0        OCC NO =    2.0000000  ORB. ENERGY = -482.567493
 -0.19579051D-06 -0.36448220D-06 -0.59956979D-06 -0.80512160D-06 -0.75805234D-06
 -0.62294207D-07  0.49627806D-06  0.13187037D-05 -0.17777048D-08  0.32973696D-06
  0.30855255D-06  0.23898588D-06 -0.72079020D-06 -0.67448204D-06 -0.52241241D-06
 -0.18812210D-05 -0.17603594D-05 -0.13634664D-05 -0.17583496D-05 -0.44190824D-06
  0.96721025D-06  0.25244251D-05  0.22438018D-05  0.49658190D-06 -0.10850128D-05
 -0.28318714D-05  0.18453904D-05  0.32607688D-06 -0.71307674D-06 -0.18611625D-05
 -0.51445113D-06 -0.34947616D-06  0.86392729D-06 -0.19078905D-06 -0.49871630D-06
  0.10899220D-05 -0.21662469D-07 -0.39076003D-07 -0.57608329D-07 -0.73070973D-06
 -0.20919980D-05 -0.14130862D-05 -0.16232270D-06  0.34968399D-06  0.92115659D-06
 -0.21758801D-07 -0.39249773D-07 -0.57864511D-07 -0.73026755D-06 -0.20917081D-05
 -0.14133444D-05 -0.16327806D-06  0.35336639D-06  0.91868203D-06 -0.21517250D-07
 -0.38814049D-07 -0.57222139D-07 -0.73145755D-06 -0.20925659D-05 -0.14127625D-05
 -0.15763880D-06  0.35484292D-06  0.92136832D-06  0.38584357D+01  0.71955605D+01
  0.12109067D+02  0.19065833D+02  0.25289923D+02  0.16475086D+02  0.96359561D+01
  0.16238834D+02  0.34607837D+01  0.81722143D-01 -0.11306762D-01  0.24822845D-02
 -0.64056600D-03  0.69960149D-04 -0.20857699D-04  0.89384546D-06 -0.26889391D-07
  0.58715612D-07  0.15324691D-06 -0.29500843D-04 -0.39455274D-04 -0.45573885D-04
  0.64525243D-04  0.86297910D-04  0.99680744D-04  0.16844101D-03  0.22527783D-03
  0.26021328D-03 -0.65338545D-05 -0.30817993D-05 -0.54464294D-06  0.14285365D-04
  0.67379259D-05  0.11907861D-05  0.37297875D-04  0.17592153D-04  0.31090414D-05
  0.45327399D-06  0.94691092D-06  0.60339410D-06 -0.99224600D-06 -0.20728490D-05
 -0.13208686D-05 -0.25898654D-05 -0.54103520D-05 -0.34476047D-05 -0.15700561D-05
  0.34374702D-05  0.89717787D-05  0.12548353D-05 -0.27473719D-05 -0.71705609D-05
 -0.59797933D-06  0.13091852D-05  0.34169197D-05  0.38751978D-06 -0.84832183D-06
 -0.22140875D-05  0.31927061D-04  0.23799381D-04  0.11032110D-04  0.25795741D-05
  0.21675165D-04  0.16157313D-04  0.74896591D-05  0.17512634D-05 -0.53602226D-04
 -0.39956693D-04 -0.18521769D-04 -0.43308375D-05  0.11824858D-04  0.88146011D-05
  0.40859739D-05  0.95539951D-06  0.30873978D-04  0.23014381D-04  0.10668226D-04
  0.24944894D-05 -0.67611469D-04 -0.50399599D-04 -0.23362537D-04 -0.54627262D-05
 -0.26102611D-05 -0.17721334D-05  0.43823945D-05 -0.96693610D-06 -0.25241543D-05
  0.55276962D-05  0.65363942D-06  0.44376813D-06 -0.10974075D-05  0.24214801D-06
  0.63209642D-06 -0.13842039D-05  0.10476183D-06  0.19563288D-06  0.33302152D-06
  0.51623916D-06  0.69516934D-06  0.52689493D-06 -0.38117110D-06 -0.88790549D-06
 -0.21658105D-06  0.14186072D-05 -0.13491404D-05  0.85047340D-06 -0.63152626D-06
  0.69278847D-05  0.11753999D-06 -0.25676359D-06 -0.67016613D-06 -0.83474167D-06
 -0.10689404D-05 -0.11437547D-05 -0.91010051D-06 -0.20946451D-06  0.18210526D-05
  0.23319749D-05  0.24951882D-05  0.19854537D-05  0.45696280D-06  0.47529619D-05
  0.60864732D-05  0.65124610D-05  0.51820500D-05  0.11926765D-05  0.73015100D-06
 -0.15172556D-06 -0.15928176D-05  0.33098789D-06 -0.41572677D-05  0.86388124D-06
  0.18237833D-06 -0.39787545D-06 -0.10384544D-05 -0.51655956D-07  0.11258236D-06
  0.29383005D-06  0.18379229D-06 -0.40173663D-06 -0.10485322D-05 -0.40800965D-06
 -0.27713330D-06  0.68514295D-06 -0.15151020D-06 -0.39553599D-06  0.86423995D-06
MO    2     MO 0.0        OCC NO =    2.0000000  ORB. ENERGY = -101.386204
  0.85517541D-06  0.15919884D-05  0.26188060D-05  0.35166169D-05  0.33110274D-05
  0.27208916D-06 -0.20009601D-05 -0.53169258D-05  0.71675874D-08 -0.37337193D-05
 -0.34938413D-05 -0.27061152D-05  0.81629255D-05  0.76384870D-05  0.59163035D-05
  0.21306109D-04  0.19937269D-04  0.15442185D-04 -0.11577699D-04  0.22245463D-05
 -0.48615417D-05 -0.12690757D-04  0.46830995D-04 -0.39828513D-05  0.87078706D-05
  0.22727669D-04 -0.86825849D-04  0.39376248D-05 -0.86088685D-05 -0.22469312D-04
 -0.88839160D-06 -0.60474476D-06  0.14931364D-05 -0.32963581D-06 -0.86295021D-06
  0.18833626D-05  0.10683097D-05  0.19270782D-05  0.28410213D-05 -0.17583613D-04
  0.16399694D-05  0.17120218D-05  0.61228700D-06 -0.11634641D-04 -0.80230512D-05
  0.10682858D-05  0.19270351D-05  0.28409577D-05 -0.17583530D-04  0.16398618D-05
  0.17122909D-05 -0.43282040D-05  0.30656966D-06 -0.13465229D-04  0.10684197D-05
  0.19272767D-05  0.28413139D-05 -0.17584758D-04  0.16396322D-05  0.17120650D-05
  0.93393042D-05 -0.95963783D-06 -0.10586467D-04  0.52249690D-07  0.97439957D-07
  0.16397707D-06  0.25818335D-06  0.34246797D-06  0.22310030D-06 -0.17997660D-05
 -0.30330255D-05 -0.64639158D-06  0.10938520D-04 -0.15397670D-04  0.14490085D-04
 -0.98317439D-05  0.55666956D-05 -0.76857627D-05 -0.13967112D-04  0.32280490D-06
 -0.70731839D-06 -0.18459965D-05  0.31565951D-05  0.42217208D-05  0.48764132D-05
 -0.69162569D-05 -0.92500003D-05 -0.10684464D-04 -0.18050782D-04 -0.24141634D-04
 -0.27885450D-04 -0.99657692D-05 -0.47005181D-05 -0.83071728D-06  0.21835891D-04
  0.10299255D-04  0.18201758D-05  0.56989596D-04  0.26880075D-04  0.47504855D-05
  0.12171830D-05  0.25427531D-05  0.16203026D-05 -0.26669735D-05 -0.55714344D-05
 -0.35502502D-05 -0.69605476D-05 -0.14540915D-04 -0.92658159D-05 -0.43292703D-05
  0.94862943D-05  0.24758339D-04  0.31231431D-05 -0.68440386D-05 -0.17862315D-04
 -0.83278706D-06  0.18260800D-05  0.47659127D-05  0.21789687D-06 -0.47855462D-06
 -0.12489742D-05 -0.10690511D-03 -0.79690244D-04 -0.36940101D-04 -0.86374891D-05
 -0.72599183D-04 -0.54117589D-04 -0.25085997D-04 -0.58657128D-05  0.17950429D-03
  0.13380783D-03  0.62026098D-04  0.14503202D-04 -0.39677069D-04 -0.29576467D-04
 -0.13710056D-04 -0.32057426D-05 -0.10354680D-03 -0.77186862D-04 -0.35779668D-04
 -0.83661518D-05  0.22642363D-03  0.16878291D-03  0.78238656D-04  0.18294090D-04
  0.84365000D-05  0.57292140D-05 -0.14165714D-04  0.31310944D-05  0.81713812D-05
 -0.17868380D-04 -0.21742088D-05 -0.14764983D-05  0.36507071D-05 -0.80687707D-06
 -0.21058033D-05  0.46049285D-05  0.12702097D+01  0.23719974D+01  0.40377986D+01
  0.62592644D+01  0.84287459D+01  0.63884628D+01  0.23318156D+01  0.54317651D+01
  0.13249354D+01  0.43909234D-01 -0.57033715D-02  0.68334945D-03 -0.21766122D-03
  0.12497761D-03  0.33163708D-05 -0.72483626D-05 -0.18918531D-04  0.10694023D-03
  0.13694384D-03  0.14652844D-03  0.11659459D-03  0.26834869D-04 -0.23369462D-03
 -0.29926097D-03 -0.32020603D-03 -0.25479211D-03 -0.58641768D-04 -0.60996152D-03
 -0.78109493D-03 -0.83576321D-03 -0.66502765D-03 -0.15305968D-03 -0.17995894D-04
  0.37395512D-05  0.39322381D-04 -0.81712005D-05  0.10263460D-03 -0.21327494D-04
 -0.65206662D-05  0.14248323D-04  0.37189377D-04  0.15737680D-06 -0.34319403D-06
 -0.89586446D-06 -0.29009852D-05  0.63408086D-05  0.16549770D-04  0.96134403D-05
  0.65291622D-05 -0.16142602D-04  0.35689215D-05  0.93150512D-05 -0.20361693D-04
MO    3     MO 0.0        OCC NO =    2.0000000  ORB. ENERGY =  -62.220654
 -0.19625654D-05 -0.36534977D-05 -0.60099694D-05 -0.80703802D-05 -0.75985672D-05
 -0.62442485D-06  0.60115925D-05  0.15973927D-04 -0.21533970D-07  0.45015902D-05
  0.42123794D-05  0.32626506D-05 -0.98403736D-05 -0.92081651D-05 -0.71320798D-05
 -0.25682833D-04 -0.24032804D-04 -0.18614335D-04 -0.24562479D-04 -0.61874516D-05
  0.13542445D-04  0.35345879D-04  0.31682429D-04  0.70184088D-05 -0.15334951D-04
 -0.40024056D-04  0.26809752D-04  0.46320531D-05 -0.10129533D-04 -0.26438543D-04
 -0.71748133D-05 -0.48740097D-05  0.12048823D-04 -0.26606870D-05 -0.69553167D-05
  0.15200715D-04 -0.32981762D-06 -0.59494394D-06 -0.87710418D-06 -0.10241994D-04
 -0.29832212D-04 -0.20224148D-04 -0.22696775D-05  0.48216697D-05  0.12850560D-04
 -0.33114834D-06 -0.59734436D-06 -0.88064304D-06 -0.10235809D-04 -0.29828083D-04
 -0.20227833D-04 -0.23156631D-05  0.49519580D-05  0.12780025D-04 -0.32781358D-06
 -0.59132894D-06 -0.87177472D-06 -0.10252450D-04 -0.29840314D-04 -0.20219535D-04
 -0.21467153D-05  0.49642082D-05  0.12836656D-04 -0.12742134D+01 -0.23762686D+01
 -0.39989094D+01 -0.62963183D+01 -0.83517678D+01 -0.54407479D+01 -0.53839932D+01
 -0.90732843D+01 -0.19336780D+01  0.58198995D+01  0.24291915D+01  0.10310892D+00
 -0.10937259D-01  0.10144455D-02 -0.29934190D-03  0.12923363D-04 -0.38446842D-06
  0.83952999D-06  0.21911623D-05 -0.65067853D-03 -0.87023612D-03 -0.10051899D-02
  0.14182479D-02  0.18968054D-02  0.21909566D-02  0.37060150D-02  0.49565307D-02
  0.57251754D-02 -0.94202482D-03 -0.44432141D-03 -0.78524425D-04  0.20536920D-02
  0.96865743D-03  0.17118974D-03  0.53661990D-02  0.25310555D-02  0.44731060D-03
  0.28372249D-05  0.59270977D-05  0.37768873D-05 -0.62376387D-05 -0.13030724D-04
 -0.83034863D-05 -0.16262709D-04 -0.33973572D-04 -0.21648766D-04 -0.19283289D-04
  0.42240850D-04  0.11023652D-03  0.16692178D-04 -0.36552411D-04 -0.95398223D-04
 -0.83466562D-05  0.18274095D-04  0.47694607D-04  0.54849020D-05 -0.12007044D-04
 -0.31337935D-04  0.80186431D-04  0.59773350D-04  0.27707703D-04  0.64787310D-05
  0.54331023D-04  0.40499960D-04  0.18773598D-04  0.43897213D-05 -0.13451745D-03
 -0.10027331D-03 -0.46481301D-04 -0.10868452D-04  0.29194236D-04  0.21762251D-04
  0.10087807D-04  0.23587732D-05  0.77539849D-04  0.57800509D-04  0.26793200D-04
  0.62648982D-05 -0.16986261D-03 -0.12662064D-03 -0.58694502D-04 -0.13724194D-04
 -0.32686945D-04 -0.22189148D-04  0.54876093D-04 -0.12101321D-04 -0.31606720D-04
  0.69219725D-04  0.89401155D-05  0.60694837D-05 -0.15009599D-04  0.33116644D-05
  0.86453536D-05 -0.18932267D-04  0.31423367D-06  0.58680190D-06  0.99889986D-06
  0.15484622D-05  0.20851642D-05  0.15804242D-05 -0.32394178D-05 -0.75459468D-05
 -0.18406340D-05  0.17156442D-04 -0.17630394D-04  0.11812563D-04 -0.90185561D-05
  0.98327211D-04  0.16683461D-05 -0.36444626D-05 -0.95122331D-05 -0.95536770D-05
 -0.12234097D-04 -0.13090353D-04 -0.10416164D-04 -0.23973360D-05  0.20842047D-04
  0.26689581D-04  0.28557565D-04  0.22723626D-04  0.52299642D-05  0.54397858D-04
  0.69659954D-04  0.74535404D-04  0.59308790D-04  0.13650236D-04  0.77061603D-05
 -0.16013420D-05 -0.16811103D-04  0.34933513D-05 -0.43877097D-04  0.91176714D-05
  0.23027906D-05 -0.50236956D-05 -0.13111819D-04 -0.68360338D-06  0.14897865D-05
  0.38881949D-05  0.25993314D-05 -0.56816901D-05 -0.14829201D-04 -0.57647236D-05
 -0.39155806D-05  0.96803042D-05 -0.21406678D-05 -0.55884509D-05  0.12210739D-04
MO    4     MO 0.0        OCC NO =    2.0000000  ORB. ENERGY =  -56.038614
  0.23265673D-05  0.43311210D-05  0.71246532D-05  0.95672136D-05  0.90078922D-05
  0.74023847D-06 -0.62044378D-05 -0.16486353D-04  0.22224755D-07  0.51049690D-05
  0.47769932D-05  0.36999659D-05 -0.11197665D-04 -0.10478255D-04 -0.81158137D-05
 -0.29222791D-04 -0.27345332D-04 -0.21180017D-04  0.89144472D-05 -0.34854748D-05
  0.76803471D-05  0.20044627D-04  0.66373103D-04  0.47176998D-05 -0.10327637D-04
 -0.26953943D-04  0.71516638D-04 -0.81959299D-05  0.17926124D-04  0.46786942D-04
  0.18010218D-04  0.12226012D-04 -0.30236229D-04  0.66954276D-05  0.17436314D-04
 -0.38136112D-04  0.11210917D-04  0.20222894D-04  0.29813877D-04 -0.87038165D-04
  0.10360361D-04 -0.70235880D-05 -0.18630844D-04 -0.46782144D-04  0.67873956D-04
  0.11209808D-04  0.20220894D-04  0.29810928D-04 -0.87037918D-04  0.10362397D-04
 -0.70269723D-05 -0.60630576D-04  0.54746114D-04  0.21615333D-04  0.11212307D-04
  0.20225403D-04  0.29817575D-04 -0.87040286D-04  0.10361333D-04 -0.70214883D-05
  0.55558220D-04  0.43981917D-04  0.46088593D-04  0.63358245D-04  0.11815620D-03
  0.19883944D-03  0.31307446D-03  0.41527844D-03  0.27053258D-03  0.28008125D-03
  0.47200223D-03  0.10059205D-03 -0.35397808D-03 -0.42978939D-04 -0.83249798D-04
  0.55707814D-04 -0.22660405D-04  0.16200087D-04  0.56757613D-04 -0.13314752D-06
  0.29193646D-06  0.76086481D-06 -0.14147229D+02 -0.18920910D+02 -0.21855110D+02
  0.30967872D+02  0.41417320D+02  0.47840200D+02  0.80835386D+02  0.10811156D+03
  0.12487720D+03 -0.18190814D+02 -0.85799950D+01 -0.15163329D+01  0.39819163D+02
  0.18781359D+02  0.33192086D+01  0.10393989D+03  0.49024951D+02  0.86641246D+01
 -0.16157581D-01 -0.33753956D-01 -0.21508821D-01  0.35368471D-01  0.73886417D-01
  0.47082178D-01  0.92322248D-01  0.19286556D+00  0.12289851D+00  0.60612037D-02
 -0.13267780D-01 -0.34632818D-01 -0.17029239D-02  0.37276371D-02  0.97302105D-02
  0.17687294D-03 -0.38716388D-03 -0.10106023D-02 -0.19857902D-04  0.43467005D-04
  0.11345898D-03 -0.66349830D-04 -0.49459136D-04 -0.22926589D-04 -0.53607910D-05
 -0.45280703D-04 -0.33753582D-04 -0.15646341D-04 -0.36584930D-05  0.11163053D-03
  0.83212718D-04  0.38572930D-04  0.90192840D-05 -0.24798584D-04 -0.18485602D-04
 -0.85689286D-05 -0.20036227D-05 -0.64663243D-04 -0.48201904D-04 -0.22343804D-04
 -0.52245218D-05  0.14033979D-03  0.10461345D-03  0.48493155D-04  0.11338873D-04
 -0.15584613D-04 -0.10578659D-04  0.26163272D-04 -0.57726585D-05 -0.15077881D-04
  0.33005602D-04  0.49715858D-05  0.33758672D-05 -0.83474530D-05  0.18433299D-05
  0.48122386D-05 -0.10529300D-04 -0.42381068D-06 -0.79142668D-06 -0.13472281D-05
 -0.20884293D-05 -0.28122857D-05 -0.21315369D-05  0.47196702D-05  0.10994068D-04
  0.26817120D-05 -0.25646706D-04  0.26782779D-04 -0.21583852D-04  0.26788677D-04
 -0.14725173D-03 -0.27422589D-05  0.59877964D-05  0.15628629D-04  0.17313844D-04
  0.22171490D-04  0.23723257D-04  0.18876904D-04  0.43446205D-05 -0.37861045D-04
 -0.48483502D-04 -0.51876827D-04 -0.41279066D-04 -0.95005982D-05 -0.98826527D-04
 -0.12655372D-03 -0.13541112D-03 -0.10774839D-03 -0.24798869D-04 -0.13734020D-04
  0.28539326D-05  0.30033060D-04 -0.62408773D-05  0.78393641D-04 -0.16290218D-04
 -0.44916910D-05  0.98219666D-05  0.25637708D-04  0.24535586D-05 -0.53650283D-05
 -0.14004039D-04 -0.10651739D-05  0.23313771D-05  0.60853031D-05 -0.50021645D-06
 -0.33922495D-06  0.83944140D-06 -0.18547070D-06 -0.48317032D-06  0.10590042D-05
MO    5     MO 0.0        OCC NO =    2.0000000  ORB. ENERGY =  -56.038281
  0.57142894D-09  0.10637680D-08  0.17498884D-08  0.23498064D-08  0.22124313D-08
  0.18181021D-09 -0.19292508D-08 -0.51263805D-08  0.69107190D-11  0.13267872D-04
  0.12415459D-04  0.96162530D-05 -0.11030200D-04 -0.10321549D-04 -0.79944389D-05
  0.65562202D-05  0.61350068D-05  0.47517999D-05  0.58688423D-08 -0.10851183D-04
  0.90240292D-05 -0.53641898D-05 -0.97493219D-08  0.75811471D-05 -0.63006042D-05
  0.37468994D-05  0.61183030D-08 -0.21567863D-05  0.17932214D-05 -0.10611410D-05
  0.10166855D-05 -0.12421832D-05  0.22549771D-06 -0.65186421D-05  0.27301120D-05
 -0.90063216D-07  0.38705056D-06  0.69818398D-06  0.10293072D-05 -0.25166403D-06
 -0.11657363D-04  0.14166736D-04 -0.12175632D-04  0.47802569D-05  0.97443244D-05
 -0.68842759D-06 -0.12418252D-05 -0.18307776D-05  0.46077580D-06  0.20720810D-04
 -0.25171493D-04  0.50862120D-05 -0.78844913D-05 -0.20457545D-04  0.30077374D-06
  0.54255291D-06  0.79986600D-06 -0.19747527D-06 -0.90501435D-05  0.11000698D-04
 -0.50516491D-05  0.13197367D-04  0.47021734D-05 -0.93347345D-08 -0.17408259D-07
 -0.29295530D-07 -0.46126072D-07 -0.61184049D-07 -0.39858266D-07 -0.39056358D-07
 -0.65819073D-07 -0.14027213D-07  0.42029867D-07  0.19262750D-07 -0.12841396D-08
  0.14804709D-08 -0.14917834D-08  0.18410401D-08  0.49938666D-08 -0.61642863D-05
  0.51234563D-05 -0.30408749D-05  0.63069039D+02  0.84350341D+02  0.97431152D+02
 -0.52416790D+02 -0.70103718D+02 -0.80975203D+02  0.31118657D+02  0.41618984D+02
  0.48073137D+02  0.81095764D+02  0.38250144D+02  0.67599050D+01 -0.67398834D+02
 -0.31789762D+02 -0.56181690D+01  0.40013155D+02  0.18872859D+02  0.33353792D+01
  0.71955363D-01  0.15031817D+00  0.95786307D-01 -0.59802228D-01 -0.12492970D+00
 -0.79608167D-01  0.35503217D-01  0.74167908D-01  0.47261551D-01 -0.26779588D-01
  0.22256559D-01 -0.13213192D-01  0.74128580D-02 -0.61608397D-02  0.36575348D-02
 -0.73163797D-03  0.60806677D-03 -0.36099119D-03  0.73710226D-04 -0.61260988D-04
  0.36369542D-04 -0.12804999D-03 -0.95452266D-04 -0.44246525D-04 -0.10345908D-04
 -0.22950986D-03 -0.17108347D-03 -0.79305074D-04 -0.18543444D-04  0.35755984D-03
  0.26653574D-03  0.12355160D-03  0.28889352D-04  0.38839301D-03  0.28951970D-03
  0.13420572D-03  0.31380544D-04  0.65988034D-03  0.49189443D-03  0.22801574D-03
  0.53315594D-04 -0.46541489D-03 -0.34693409D-03 -0.16081994D-03 -0.37603592D-04
  0.18887215D-05  0.31887217D-05 -0.50774432D-05 -0.59377376D-05 -0.92162813D-05
  0.66120659D-05 -0.27168708D-06 -0.44087280D-06  0.71255987D-06  0.87456979D-06
  0.12775036D-05 -0.92780501D-06 -0.27864917D-10 -0.52035118D-10 -0.88578228D-10
 -0.13731110D-09 -0.18490357D-09 -0.14014535D-09  0.30890439D-09  0.71956636D-09
  0.17551917D-09 -0.17096616D-08  0.18549720D-08 -0.17672222D-08  0.22474336D-08
 -0.12946553D-07 -0.49887263D-06  0.41515926D-06 -0.24464495D-06 -0.28447284D-04
 -0.36428575D-04 -0.38978185D-04 -0.31015449D-04 -0.71383716D-05  0.23639404D-04
  0.30271777D-04  0.32390477D-04  0.25773524D-04  0.59319145D-05 -0.14067053D-04
 -0.18013765D-04 -0.19274535D-04 -0.15336998D-04 -0.35298923D-05  0.22854972D-04
 -0.47492687D-05 -0.18992322D-04  0.39466091D-05  0.11301465D-04 -0.23484472D-05
  0.72036309D-05 -0.59860918D-05  0.35623329D-05 -0.37392862D-05  0.31073280D-05
 -0.18490487D-05  0.12815277D-05 -0.10648321D-05  0.63467819D-06 -0.72236883D-07
  0.18987544D-06 -0.11763855D-06  0.57889750D-06 -0.45701850D-06  0.12994166D-06
MO    6     MO 0.0        OCC NO =    2.0000000  ORB. ENERGY =  -56.038280
  0.59324426D-09  0.11043793D-08  0.18166935D-08  0.24395144D-08  0.22968948D-08
  0.18875114D-09 -0.19165199D-08 -0.50925522D-08  0.68651161D-11  0.12463768D-04
  0.11663016D-04  0.90334570D-05  0.13280347D-04  0.12427132D-04  0.96252945D-05
 -0.29019527D-05 -0.27155127D-05 -0.21032695D-05  0.52768285D-08 -0.10186764D-04
 -0.10858019D-04  0.23722192D-05 -0.41916025D-08  0.71255725D-05  0.75909224D-05
 -0.16579156D-05  0.14940048D-07 -0.20282376D-05 -0.21564756D-05  0.47837822D-06
 -0.34523241D-05  0.29458015D-05  0.50652264D-06 -0.23059021D-05 -0.44749228D-06
 -0.27911609D-05 -0.57103140D-06 -0.10300592D-05 -0.15185787D-05  0.38324094D-06
  0.17188540D-04 -0.20884442D-04 -0.36484298D-05 -0.50290208D-05 -0.18926436D-04
 -0.49750928D-07 -0.89743576D-07 -0.13230569D-06  0.34472881D-07  0.15049438D-05
 -0.18276776D-05 -0.73922033D-05 -0.10073757D-04  0.79626576D-06  0.62190715D-06
  0.11218318D-05  0.16538757D-05 -0.42102657D-06 -0.18682803D-04  0.22705354D-04
 -0.36101131D-06  0.29504049D-05  0.20783083D-04 -0.40452002D-07 -0.75438559D-07
 -0.12695196D-06 -0.19988699D-06 -0.26514062D-06 -0.17272550D-06 -0.16952822D-06
 -0.28569459D-06 -0.60886589D-07  0.18874913D-06  0.76057014D-07 -0.26810417D-08
  0.39271009D-08 -0.23301664D-08  0.24434615D-08  0.84659294D-08 -0.57951028D-05
 -0.61708409D-05  0.13511727D-05  0.59293714D+02  0.79301113D+02  0.91598904D+02
  0.63143133D+02  0.84449436D+02  0.97545614D+02 -0.13812846D+02 -0.18473696D+02
 -0.21338544D+02  0.76241356D+02  0.35960483D+02  0.63552557D+01  0.81191036D+02
  0.38295080D+02  0.67678465D+01 -0.17760906D+02 -0.83772221D+01 -0.14804971D+01
  0.67648104D-01  0.14132010D+00  0.90052524D-01  0.72039897D-01  0.15049477D+00
  0.95898837D-01 -0.15759052D-01 -0.32921409D-01 -0.20978303D-01 -0.25176572D-01
 -0.26811058D-01  0.58650362D-02  0.69691312D-02  0.74215741D-02 -0.16234992D-02
 -0.68784177D-03 -0.73249857D-03  0.16023570D-03  0.69297146D-04  0.73797252D-04
 -0.16141888D-04 -0.11665284D-03 -0.86956498D-04 -0.40308345D-04 -0.94250659D-05
  0.27551502D-03  0.20537709D-03  0.95201746D-04  0.22260471D-04 -0.15886218D-03
 -0.11842059D-03 -0.54893401D-04 -0.12835405D-04  0.13517189D-03  0.10076115D-03
  0.46707436D-04  0.10921328D-04  0.70960282D-03  0.52895904D-03  0.24519690D-03
  0.57332965D-04  0.66710950D-03  0.49728325D-03  0.23051371D-03  0.53899680D-04
  0.14442646D-05 -0.37329422D-05  0.22886776D-05 -0.20648521D-05 -0.10121220D-04
 -0.96657362D-05 -0.18154814D-06  0.50640366D-06 -0.32485552D-06  0.30506378D-06
  0.14243812D-05  0.13757419D-05 -0.54621343D-10 -0.10200023D-09 -0.17363274D-09
 -0.26915984D-09 -0.36245151D-09 -0.27471560D-09  0.60713048D-09  0.14142586D-08
  0.34497095D-09 -0.33243005D-08  0.35286703D-08 -0.30988174D-08  0.39912509D-08
 -0.23759612D-07 -0.46893586D-06 -0.49804800D-06  0.11192342D-06 -0.26738988D-04
 -0.34240993D-04 -0.36637496D-04 -0.29152932D-04 -0.67097034D-05 -0.28496344D-04
 -0.36491400D-04 -0.39045407D-04 -0.31068938D-04 -0.71506825D-05  0.62002169D-05
  0.79397763D-05  0.84954755D-05  0.67599604D-05  0.15558411D-05  0.21482480D-04
 -0.44640646D-05  0.22894259D-04 -0.47574325D-05 -0.49815711D-05  0.10351717D-05
  0.67710489D-05  0.72161481D-05 -0.15698864D-05 -0.35146744D-05 -0.37457434D-05
  0.81488688D-06  0.12044056D-05  0.12842355D-05 -0.27836110D-06  0.39160453D-06
 -0.37949943D-06 -0.12105094D-07  0.20534343D-06 -0.13899150D-06  0.11549516D-06
MO    7     MO 0.0        OCC NO =    2.0000000  ORB. ENERGY =  -10.084805
  0.43814009D+00  0.81563844D+00  0.13417176D+01  0.18017015D+01  0.16963699D+01
  0.13940201D+00  0.37091705D+00  0.98559604D+00 -0.13286523D-02 -0.38431568D-03
 -0.35962479D-03 -0.27854330D-03  0.84093306D-03  0.78690615D-03  0.60948923D-03
  0.21947911D-02  0.20537837D-02  0.15907349D-02  0.78820375D-02  0.20287079D-03
 -0.44373828D-03 -0.11581650D-02 -0.14581422D-02  0.78591562D-05 -0.17166526D-04
 -0.44813369D-04 -0.59375736D-03 -0.15038072D-04  0.32890101D-04  0.85844896D-04
  0.66070964D-03  0.44872800D-03 -0.11094376D-02  0.24519525D-03  0.64014510D-03
 -0.13995336D-02  0.49850961D-04  0.89924021D-04  0.13257171D-03 -0.12479392D-02
  0.70979886D-03  0.10781297D-04 -0.28342746D-03 -0.22888521D-02  0.33802752D-03
  0.49848417D-04  0.89919432D-04  0.13256494D-03 -0.12479825D-02  0.70981544D-03
  0.10771950D-04 -0.16791413D-02  0.10845647D-02 -0.11991219D-02  0.49856302D-04
  0.89933655D-04  0.13258591D-03 -0.12479085D-02  0.70978086D-03  0.10807606D-04
  0.21809484D-02  0.72665534D-03 -0.38550405D-03 -0.49312662D-06 -0.91962719D-06
 -0.15475969D-05 -0.24367050D-05 -0.32321737D-05 -0.21055952D-05  0.93045256D-05
  0.15680296D-04  0.33417494D-05 -0.84296303D-04  0.15139277D-03 -0.19072969D-03
  0.15892893D-03 -0.91719086D-04  0.76869393D-04  0.15907184D-03 -0.38019658D-05
  0.83206682D-05  0.21716772D-04 -0.48594960D-05 -0.64992293D-05 -0.75071113D-05
  0.10502012D-04  0.14045693D-04  0.16223859D-04  0.27397129D-04  0.36641706D-04
  0.42323998D-04  0.52533159D-05  0.24778124D-05  0.43790100D-06 -0.11977458D-04
 -0.56493642D-05 -0.99840578D-06 -0.31304766D-04 -0.14765405D-04 -0.26094734D-05
 -0.20388996D-05 -0.42593581D-05 -0.27141641D-05  0.45289258D-05  0.94611413D-05
  0.60288637D-05  0.11826355D-04  0.24705818D-04  0.15743134D-04  0.18867106D-04
 -0.41560960D-04 -0.10849651D-03 -0.22726007D-04  0.49938977D-04  0.13035694D-03
  0.15673887D-04 -0.34360932D-04 -0.89686456D-04 -0.65552131D-05  0.14371917D-04
  0.37512759D-04 -0.28253440D-03 -0.21060954D-03 -0.97627230D-04 -0.22827608D-04
 -0.19189205D-03 -0.14304204D-03 -0.66306580D-04 -0.15504082D-04  0.47442645D-03
  0.35365158D-03  0.16393381D-03  0.38331689D-04 -0.10457817D-03 -0.77955680D-04
 -0.36136051D-04 -0.84494826D-05 -0.27342009D-03 -0.20381547D-03 -0.94477863D-04
 -0.22091209D-04  0.59842445D-03  0.44608338D-03  0.20678021D-03  0.48350214D-04
  0.24754147D-04  0.16812742D-04 -0.41566890D-04  0.91588870D-05  0.23951590D-04
 -0.52430642D-04 -0.17516481D-05 -0.11903792D-05  0.29420274D-05 -0.63982525D-06
 -0.16874089D-05  0.37104452D-05 -0.64914500D-05 -0.12122174D-04 -0.20635308D-04
 -0.31988185D-04 -0.43075394D-04 -0.32648457D-04 -0.23628787D-04 -0.55041240D-04
 -0.13425854D-04  0.45840546D-04 -0.33851630D-05 -0.95419671D-04  0.20760563D-03
 -0.26686073D-04 -0.12499311D-05  0.27197144D-05  0.70979338D-05 -0.53758018D-04
 -0.68840598D-04 -0.73658702D-04 -0.58611187D-04 -0.13489679D-04  0.11750230D-03
  0.15046925D-03  0.16100048D-03  0.12811018D-03  0.29485243D-04  0.30669663D-03
  0.39274475D-03  0.42023267D-03  0.33438460D-03  0.76960407D-04  0.21715074D-04
 -0.45123976D-05 -0.47464481D-04  0.98631308D-05 -0.12389059D-03  0.25744496D-04
 -0.12204776D-04  0.26678477D-04  0.69629751D-04  0.28926330D-04 -0.63230625D-04
 -0.16503415D-03  0.89464315D-05 -0.19546122D-04 -0.51017638D-04 -0.10895760D-03