 Single Point Energy
GAUSSIAN             31 MOL ORBITALS    210 PRIMITIVES        6 NUCLEI   B3LYP
  C    1    (CENTRE  1)  -0.01648653  0.17628047  1.86539434  CHARGE =  6.0
  H    2    (CENTRE  2)  -0.90680326 -1.64141078  1.67717759  CHARGE =  1.0
  H    3    (CENTRE  3)  -1.11830552  1.80471459  1.34939233  CHARGE =  1.0
  H    4    (CENTRE  4)   1.98520382  0.26656713  1.52304466  CHARGE =  1.0
  Br   5    (CENTRE  5)   0.02969334 -0.31158485 -3.29583638  CHARGE = 35.0
  Cl   6    (CENTRE  6)  -0.05296721  0.55399506  5.85954662  CHARGE = 17.0
CENTRE ASSIGNMENTS    1  1  1  1  1  1  1  1  1  1  1  1  1  1  1  1  1  1  1  1
CENTRE ASSIGNMENTS    1  1  1  1  1  1  1  1  1  1  1  1  1  1  1  1  2  2  2  2
CENTRE ASSIGNMENTS    2  2  2  2  2  3  3  3  3  3  3  3  3  3  4  4  4  4  4  4
CENTRE ASSIGNMENTS    4  4  4  5  5  5  5  5  5  5  5  5  5  5  5  5  5  5  5  5
CENTRE ASSIGNMENTS    5  5  5  5  5  5  5  5  5  5  5  5  5  5  5  5  5  5  5  5
CENTRE ASSIGNMENTS    5  5  5  5  5  5  5  5  5  5  5  5  5  5  5  5  5  5  5  5
CENTRE ASSIGNMENTS    5  5  5  5  5  5  5  5  5  5  5  5  5  5  5  5  5  5  5  5
CENTRE ASSIGNMENTS    5  5  5  5  5  5  5  5  5  5  5  5  5  5  5  5  5  6  6  6
CENTRE ASSIGNMENTS    6  6  6  6  6  6  6  6  6  6  6  6  6  6  6  6  6  6  6  6
CENTRE ASSIGNMENTS    6  6  6  6  6  6  6  6  6  6  6  6  6  6  6  6  6  6  6  6
CENTRE ASSIGNMENTS    6  6  6  6  6  6  6  6  6  6
TYPE ASSIGNMENTS      1  1  1  1  1  1  1  1  1  2  2  2  3  3  3  4  4  4  1  2
TYPE ASSIGNMENTS      3  4  1  2  3  4  1  2  3  4  5  6  7  8  9 10  1  1  1  1
TYPE ASSIGNMENTS      1  1  2  3  4  1  1  1  1  1  1  2  3  4  1  1  1  1  1  1
TYPE ASSIGNMENTS      2  3  4  1  1  1  1  1  1  1  1  1  1  1  1  1  1  1  1  2
TYPE ASSIGNMENTS      3  4  2  2  2  3  3  3  4  4  4  2  2  2  3  3  3  4  4  4
TYPE ASSIGNMENTS      2  2  2  3  3  3  4  4  4  2  3  4  2  3  4  2  3  4  2  3
TYPE ASSIGNMENTS      4  5  5  5  5  6  6  6  6  7  7  7  7  8  8  8  8  9  9  9
TYPE ASSIGNMENTS      9 10 10 10 10  5  6  7  8  9 10  5  6  7  8  9 10  1  1  1
TYPE ASSIGNMENTS      1  1  1  1  1  1  1  1  1  1  1  2  3  4  2  2  2  2  2  3
TYPE ASSIGNMENTS      3  3  3  3  4  4  4  4  4  2  2  3  3  4  4  2  3  4  2  3
TYPE ASSIGNMENTS      4  2  3  4  5  6  7  8  9 10
EXPONENTS  0.4563240D+04 0.6820240D+03 0.1549730D+03 0.4445530D+02 0.1302900D+02
EXPONENTS  0.1827730D+01 0.2096420D+02 0.4803310D+01 0.1459330D+01 0.2096420D+02
EXPONENTS  0.4803310D+01 0.1459330D+01 0.2096420D+02 0.4803310D+01 0.1459330D+01
EXPONENTS  0.2096420D+02 0.4803310D+01 0.1459330D+01 0.4834560D+00 0.4834560D+00
EXPONENTS  0.4834560D+00 0.4834560D+00 0.1455850D+00 0.1455850D+00 0.1455850D+00
EXPONENTS  0.1455850D+00 0.4380000D-01 0.4380000D-01 0.4380000D-01 0.4380000D-01
EXPONENTS  0.6260000D+00 0.6260000D+00 0.6260000D+00 0.6260000D+00 0.6260000D+00
EXPONENTS  0.6260000D+00 0.3386500D+02 0.5094790D+01 0.1158790D+01 0.3258400D+00
EXPONENTS  0.1027410D+00 0.3600000D-01 0.7500000D+00 0.7500000D+00 0.7500000D+00
EXPONENTS  0.3386500D+02 0.5094790D+01 0.1158790D+01 0.3258400D+00 0.1027410D+00
EXPONENTS  0.3600000D-01 0.7500000D+00 0.7500000D+00 0.7500000D+00 0.3386500D+02
EXPONENTS  0.5094790D+01 0.1158790D+01 0.3258400D+00 0.1027410D+00 0.3600000D-01
EXPONENTS  0.7500000D+00 0.7500000D+00 0.7500000D+00 0.4397000D+06 0.6603000D+05
EXPONENTS  0.1514000D+05 0.4317000D+04 0.1414000D+04 0.5239000D+03 0.5239000D+03
EXPONENTS  0.2077000D+03 0.8654000D+02 0.3052000D+02 0.1298000D+02 0.4412000D+01
EXPONENTS  0.1862000D+01 0.3932000D+00 0.1400000D+00 0.3500000D-01 0.3500000D-01
EXPONENTS  0.3500000D-01 0.3500000D-01 0.2957000D+04 0.7003000D+03 0.2246000D+03
EXPONENTS  0.2957000D+04 0.7003000D+03 0.2246000D+03 0.2957000D+04 0.7003000D+03
EXPONENTS  0.2246000D+03 0.8259000D+02 0.3319000D+02 0.1420000D+02 0.8259000D+02
EXPONENTS  0.3319000D+02 0.1420000D+02 0.8259000D+02 0.3319000D+02 0.1420000D+02
EXPONENTS  0.1420000D+02 0.7438000D+01 0.3526000D+01 0.1420000D+02 0.7438000D+01
EXPONENTS  0.3526000D+01 0.1420000D+02 0.7438000D+01 0.3526000D+01 0.1595000D+01
EXPONENTS  0.1595000D+01 0.1595000D+01 0.8462000D+00 0.8462000D+00 0.8462000D+00
EXPONENTS  0.3186000D+00 0.3186000D+00 0.3186000D+00 0.1096000D+00 0.1096000D+00
EXPONENTS  0.1096000D+00 0.1348000D+03 0.3639000D+02 0.1216000D+02 0.4341000D+01
EXPONENTS  0.1348000D+03 0.3639000D+02 0.1216000D+02 0.4341000D+01 0.1348000D+03
EXPONENTS  0.3639000D+02 0.1216000D+02 0.4341000D+01 0.1348000D+03 0.3639000D+02
EXPONENTS  0.1216000D+02 0.4341000D+01 0.1348000D+03 0.3639000D+02 0.1216000D+02
EXPONENTS  0.4341000D+01 0.1348000D+03 0.3639000D+02 0.1216000D+02 0.4341000D+01
EXPONENTS  0.1535000D+01 0.1535000D+01 0.1535000D+01 0.1535000D+01 0.1535000D+01
EXPONENTS  0.1535000D+01 0.4510000D+00 0.4510000D+00 0.4510000D+00 0.4510000D+00
EXPONENTS  0.4510000D+00 0.4510000D+00 0.1058190D+06 0.1587200D+05 0.3619650D+04
EXPONENTS  0.1030800D+04 0.3399080D+03 0.1245380D+03 0.1245380D+03 0.4951350D+02
EXPONENTS  0.2080560D+02 0.6583460D+01 0.2564680D+01 0.5597630D+00 0.1832730D+00
EXPONENTS  0.4830000D-01 0.4830000D-01 0.4830000D-01 0.4830000D-01 0.5897760D+03
EXPONENTS  0.1398490D+03 0.4514130D+02 0.1687330D+02 0.2771520D+01 0.5897760D+03
EXPONENTS  0.1398490D+03 0.4514130D+02 0.1687330D+02 0.2771520D+01 0.5897760D+03
EXPONENTS  0.1398490D+03 0.4514130D+02 0.1687330D+02 0.2771520D+01 0.6741100D+01
EXPONENTS  0.2771520D+01 0.6741100D+01 0.2771520D+01 0.6741100D+01 0.2771520D+01
EXPONENTS  0.1023870D+01 0.1023870D+01 0.1023870D+01 0.3813680D+00 0.3813680D+00
EXPONENTS  0.3813680D+00 0.1094370D+00 0.1094370D+00 0.1094370D+00 0.7500000D+00
EXPONENTS  0.7500000D+00 0.7500000D+00 0.7500000D+00 0.7500000D+00 0.7500000D+00
MO    1     MO 0.0        OCC NO =    2.0000000  ORB. ENERGY = -482.579955
 -0.24654173D-06 -0.45896032D-06 -0.75498541D-06 -0.10138187D-05 -0.95454852D-06
 -0.78441607D-07  0.61974070D-06  0.16467671D-05 -0.22199571D-08  0.96241504D-08
  0.90058335D-08  0.69753661D-08 -0.98452475D-07 -0.92127260D-07 -0.71356124D-07
 -0.10408075D-05 -0.97393936D-06 -0.75435368D-06 -0.21866509D-05 -0.18124485D-07
  0.19264547D-06  0.20384059D-05  0.25587694D-05  0.25053058D-07 -0.25789016D-06
 -0.27267354D-05  0.22183983D-05  0.20360864D-07 -0.21261517D-06 -0.22487723D-05
 -0.83128249D-06 -0.80973437D-06  0.16410169D-05 -0.40817023D-08 -0.44896936D-07
  0.46764751D-06 -0.60318651D-07 -0.10880624D-06 -0.16040908D-06 -0.33937246D-06
 -0.21129968D-05 -0.13068199D-05  0.15364933D-06  0.40842238D-06  0.86161300D-06
 -0.60386163D-07 -0.10892802D-06 -0.16058862D-06 -0.33902851D-06 -0.21128082D-05
 -0.13069888D-05  0.19245598D-06 -0.21800484D-06  0.92054775D-06 -0.60157087D-07
 -0.10851480D-06 -0.15997942D-06 -0.34019701D-06 -0.21135079D-05 -0.13064680D-05
 -0.36981503D-06  0.62206933D-07  0.89113237D-06  0.38584357D+01  0.71955605D+01
  0.12109067D+02  0.19065833D+02  0.25289923D+02  0.16475086D+02  0.96359560D+01
  0.16238833D+02  0.34607836D+01  0.81723258D-01 -0.11308350D-01  0.24837125D-02
 -0.64152299D-03  0.70559704D-04 -0.21429030D-04  0.28084717D-06 -0.81090019D-09
  0.79202843D-08  0.83636549D-07 -0.26574839D-05 -0.35541952D-05 -0.41053696D-05
  0.28834203D-04  0.38563689D-04  0.44544036D-04  0.30499896D-03  0.40791435D-03
  0.47117255D-03 -0.47203429D-06 -0.22264269D-06 -0.39347393D-07  0.51265096D-05
  0.24180021D-05  0.42733080D-06  0.54241405D-04  0.25583846D-04  0.45214043D-05
  0.27327940D-07  0.57089364D-07  0.36378698D-07 -0.29284976D-06 -0.61177707D-06
 -0.38983887D-06 -0.30988550D-05 -0.64736555D-05 -0.41251669D-05 -0.91359129D-07
  0.97633913D-06  0.10331406D-04  0.72495873D-07 -0.77396518D-06 -0.81898161D-05
 -0.34481038D-07  0.36744983D-06  0.38880736D-05  0.23199382D-07 -0.24657953D-06
 -0.26089688D-05  0.34999176D-04  0.26089427D-04  0.12093652D-04  0.28277883D-05
  0.34080368D-04  0.25404520D-04  0.11776166D-04  0.27535524D-05 -0.69079545D-04
 -0.51493946D-04 -0.23869818D-04 -0.55813407D-05  0.17246841D-06  0.12856308D-06
  0.59594913D-07  0.13934732D-07  0.18395849D-05  0.13712813D-05  0.63565209D-06
  0.14863083D-06 -0.19671950D-04 -0.14664057D-04 -0.67974662D-05 -0.15894120D-05
 -0.30224705D-05 -0.29430498D-05  0.59655203D-05 -0.14939929D-07 -0.15881754D-06
  0.16988498D-05  0.76953851D-06  0.74931432D-06 -0.15188528D-05  0.38068815D-08
  0.40451513D-07 -0.43254246D-06  0.13656869D-06  0.25502922D-06  0.43413058D-06
  0.67297515D-06  0.90623054D-06  0.68686613D-06 -0.49676462D-06 -0.11571707D-05
 -0.28226118D-06  0.18411409D-05 -0.17363619D-05  0.11121481D-05 -0.11144184D-05
  0.70304589D-05  0.73746360D-08 -0.75465409D-07 -0.79779748D-06 -0.60229715D-07
 -0.77128021D-07 -0.82526156D-07 -0.65667136D-07 -0.15113643D-07  0.60821056D-06
  0.77885271D-06  0.83336406D-06  0.66311862D-06  0.15262030D-06  0.64276839D-05
  0.82310623D-05  0.88071484D-05  0.70079626D-05  0.16129201D-05  0.53538318D-07
 -0.11125276D-07 -0.54056871D-06  0.11233031D-06 -0.57128163D-05  0.11871246D-05
  0.12706128D-07 -0.12823054D-06 -0.13551411D-05 -0.47805632D-08  0.48102469D-07
  0.50830397D-06  0.97491159D-08 -0.10090471D-06 -0.10669931D-05 -0.49485274D-06
 -0.48182252D-06  0.97667526D-06 -0.25590791D-08 -0.27117063D-07  0.27839795D-06
MO    2     MO 0.0        OCC NO =    2.0000000  ORB. ENERGY = -101.367672
  0.73194841D-07  0.13625899D-06  0.22414476D-06  0.30098879D-06  0.28339229D-06
  0.23288231D-07 -0.62813492D-07 -0.16690721D-06  0.22500258D-09 -0.81642926D-07
 -0.76397664D-07 -0.59172943D-07  0.85248858D-06  0.79771927D-06  0.61786441D-06
  0.90168029D-05  0.84375059D-05  0.65351745D-05 -0.14662781D-04  0.87717848D-07
 -0.90272299D-06 -0.95461009D-05  0.38618874D-04 -0.21207288D-06  0.22045685D-05
  0.23314025D-04 -0.63048548D-04  0.19182502D-06 -0.19930879D-05 -0.21077564D-04
 -0.46768551D-05 -0.45550932D-05  0.92319482D-05 -0.23581189D-07 -0.25547955D-06
  0.26313722D-05  0.13623878D-05  0.24575531D-05  0.36230811D-05 -0.15046711D-04
  0.13487897D-05 -0.52503099D-07 -0.15326660D-05 -0.43157653D-05 -0.10832637D-04
  0.13623556D-05  0.24574951D-05  0.36229956D-05 -0.15046462D-04  0.13489236D-05
 -0.52684514D-07 -0.19189982D-05  0.19854465D-05 -0.11431468D-04  0.13625115D-05
  0.24577763D-05  0.36234101D-05 -0.15047672D-04  0.13482985D-05 -0.51936254D-07
  0.37586446D-05 -0.82671222D-06 -0.11116380D-04  0.68302028D-07  0.12737581D-06
  0.21435469D-06  0.33750336D-06  0.44768222D-06  0.29164198D-06 -0.23598617D-05
 -0.39769174D-05 -0.84755170D-06  0.14338603D-04 -0.20176871D-04  0.18967673D-04
 -0.12823763D-04  0.68026695D-05 -0.83982299D-05 -0.12411998D-04  0.14638289D-07
 -0.15885691D-06 -0.16815387D-05  0.17830171D-06  0.23846582D-06  0.27544642D-06
 -0.19239265D-05 -0.25731145D-05 -0.29721457D-05 -0.20363120D-04 -0.27234220D-04
 -0.31457626D-04 -0.56084064D-06 -0.26452966D-06 -0.46750031D-07  0.60540988D-05
  0.28555148D-05  0.50465192D-06  0.64078021D-04  0.30223447D-04  0.53413558D-05
  0.68833295D-07  0.14379602D-06  0.91630238D-07 -0.74301380D-06 -0.15521911D-05
 -0.98909302D-06 -0.78642302D-05 -0.16428751D-04 -0.10468790D-04 -0.24967921D-06
  0.26956327D-05  0.28531329D-04  0.18479754D-06 -0.19965476D-05 -0.21132361D-04
 -0.52539079D-07  0.57157193D-06  0.60507109D-05  0.84993362D-08 -0.97413617D-07
 -0.10323659D-05 -0.12599153D-03 -0.93917835D-04 -0.43535245D-04 -0.10179593D-04
 -0.12266849D-03 -0.91440737D-04 -0.42386996D-04 -0.99111049D-05  0.24866002D-03
  0.18535857D-03  0.85922242D-04  0.20090698D-04 -0.64245946D-06 -0.47890838D-06
 -0.22199611D-06 -0.51908059D-07 -0.67739810D-05 -0.50495268D-05 -0.23406884D-05
 -0.54730956D-06  0.70848941D-04  0.52812907D-04  0.24481217D-04  0.57243005D-05
  0.10027819D-04  0.97633543D-05 -0.19791173D-04  0.51115343D-07  0.53902742D-06
 -0.56389304D-05 -0.26784841D-05 -0.26078673D-05  0.52863514D-05 -0.13633102D-07
 -0.14386629D-06  0.15061693D-05  0.12702100D+01  0.23719980D+01  0.40377995D+01
  0.62592659D+01  0.84287479D+01  0.63884643D+01  0.23318176D+01  0.54317698D+01
  0.13249365D+01  0.43899581D-01 -0.56954207D-02  0.67678450D-03 -0.20804518D-03
  0.10364783D-03  0.16392781D-06 -0.16948528D-05 -0.17921682D-04  0.46673107D-05
  0.59767913D-05  0.63951026D-05  0.50886663D-05  0.11711838D-05 -0.48057521D-04
 -0.61540744D-04 -0.65847936D-04 -0.52396059D-04 -0.12059234D-04 -0.50810851D-03
 -0.65066560D-03 -0.69620522D-03 -0.55397955D-03 -0.12750136D-03 -0.69165734D-06
  0.14372656D-06  0.71032416D-05 -0.14760553D-05  0.75095423D-04 -0.15604847D-04
 -0.27275137D-06  0.28034261D-05  0.29638815D-04  0.23635134D-07 -0.24168322D-06
 -0.25547715D-05 -0.15334906D-06  0.15866625D-05  0.16777949D-04  0.99795880D-05
  0.97166789D-05 -0.19696267D-04  0.51252039D-07  0.54214397D-06 -0.56131636D-05
MO    3     MO 0.0        OCC NO =    2.0000000  ORB. ENERGY =  -62.233109
 -0.24813787D-05 -0.46193168D-05 -0.75987326D-05 -0.10203823D-04 -0.96072836D-05
 -0.78949445D-06  0.74976118D-05  0.19922558D-04 -0.26857001D-07  0.12885250D-06
  0.12057419D-06  0.93389370D-07 -0.13180858D-05 -0.12334035D-05 -0.95531871D-06
 -0.13934416D-04 -0.13039180D-04 -0.10099349D-04 -0.30450968D-04 -0.25298558D-06
  0.26886586D-05  0.28449002D-04  0.36077646D-04  0.35340088D-06 -0.36377136D-05
 -0.38462405D-04  0.32069101D-04  0.28914186D-06 -0.30192988D-05 -0.31934285D-04
 -0.11592842D-04 -0.11292459D-04  0.22885301D-04 -0.56852101D-07 -0.62600974D-06
  0.65217089D-05 -0.87145794D-06 -0.15719858D-05 -0.23175214D-05 -0.47154243D-05
 -0.30115208D-04 -0.18702452D-04  0.21129754D-05  0.56293114D-05  0.11960339D-04
 -0.87238856D-06 -0.15736645D-05 -0.23199963D-05 -0.47106084D-05 -0.30112523D-04
 -0.18704853D-04  0.26469690D-05 -0.29895292D-05  0.12771052D-04 -0.86923547D-06
 -0.15679768D-05 -0.23116111D-05 -0.47269288D-05 -0.30122523D-04 -0.18697419D-04
 -0.50888419D-05  0.86594834D-06  0.12366872D-04 -0.12742135D+01 -0.23762687D+01
 -0.39989096D+01 -0.62963186D+01 -0.83517683D+01 -0.54407482D+01 -0.53839954D+01
 -0.90732880D+01 -0.19336787D+01  0.58199129D+01  0.24291735D+01  0.10312611D+00
 -0.10949604D-01  0.10226759D-02 -0.30731857D-03  0.42073296D-05 -0.11603730D-07
  0.11335188D-06  0.11969949D-05 -0.61633086D-04 -0.82429856D-04 -0.95212844D-04
  0.68264199D-03  0.91298497D-03  0.10545681D-02  0.72231502D-02  0.96604482D-02
  0.11158563D-01 -0.87617343D-04 -0.41326153D-04 -0.73035247D-05  0.96959242D-03
  0.45732412D-03  0.80822379D-04  0.10259356D-01  0.48389929D-02  0.85518979D-03
  0.76540910D-07  0.15989760D-06  0.10189054D-06 -0.72928046D-06 -0.15235015D-05
 -0.97081133D-06 -0.77164444D-05 -0.16120019D-04 -0.10272059D-04 -0.10522148D-05
  0.11164006D-04  0.11815432D-03  0.94041887D-06 -0.10013260D-04 -0.10596705D-03
 -0.47828499D-06  0.50942168D-05  0.53904577D-04  0.32776908D-06 -0.34834796D-05
 -0.36857605D-04 -0.24865334D-03 -0.18535359D-03 -0.85919932D-04 -0.20090158D-04
 -0.24193315D-03 -0.18034416D-03 -0.83597831D-04 -0.19547195D-04  0.49058648D-03
  0.36569775D-03  0.16951776D-03  0.39637353D-04 -0.13603710D-05 -0.10140610D-05
 -0.47006400D-06 -0.10991233D-06 -0.12932216D-04 -0.96400583D-05 -0.44686114D-05
 -0.10448694D-05  0.13978062D-03  0.10419663D-03  0.48299942D-04  0.11293695D-04
 -0.35392748D-04 -0.34465298D-04  0.69858046D-04 -0.17389946D-06 -0.18616548D-05
  0.19892587D-04  0.10387374D-04  0.10114526D-04 -0.20501900D-04  0.51362007D-07
  0.54608797D-06 -0.58384835D-05  0.40803499D-06  0.76196706D-06  0.12970796D-05
  0.20106908D-05  0.27076027D-05  0.20521937D-05 -0.42002614D-05 -0.97841498D-05
 -0.23865844D-05  0.22166183D-04 -0.22605150D-04  0.15436554D-04 -0.15859223D-04
  0.99771813D-04  0.10470540D-06 -0.10714462D-05 -0.11327000D-04 -0.68515114D-06
 -0.87738008D-06 -0.93878728D-06 -0.74700525D-06 -0.17192726D-06  0.69180462D-05
  0.88590028D-05  0.94790380D-05  0.75425939D-05  0.17359684D-05  0.73111200D-04
  0.93623591D-04  0.10017624D-03  0.79711536D-04  0.18346037D-04  0.56212481D-06
 -0.11680967D-06 -0.56760519D-05  0.11794850D-05 -0.59985666D-04  0.12465036D-04
  0.15977016D-06 -0.16121015D-05 -0.17036656D-04 -0.64511727D-07  0.64909131D-06
  0.68590260D-05  0.13765023D-06 -0.14248055D-05 -0.15066307D-04 -0.69592988D-05
 -0.67760476D-05  0.13735346D-04 -0.35989346D-07 -0.38133254D-06  0.39152043D-05
MO    4     MO 0.0        OCC NO =    2.0000000  ORB. ENERGY =  -56.051277
  0.14829200D-05  0.27605933D-05  0.45411499D-05  0.60980022D-05  0.57414990D-05
  0.47181719D-06 -0.38334987D-05 -0.10186324D-04  0.13731876D-07  0.16214454D-06
  0.15172734D-06  0.11751869D-06 -0.17360086D-05 -0.16244764D-05 -0.12582197D-05
 -0.18373829D-04 -0.17193377D-04 -0.13316935D-04 -0.14553280D-05 -0.25832657D-06
  0.28583397D-05  0.30268733D-04  0.72831213D-04  0.29150612D-06 -0.30853040D-05
 -0.32646532D-04  0.46956855D-04 -0.44584448D-06  0.46664680D-05  0.49358643D-04
  0.15241122D-04  0.14834414D-04 -0.30075536D-04  0.80957692D-07  0.82988916D-06
 -0.85720611D-05  0.11075360D-04  0.19978369D-04  0.29453381D-04 -0.86757923D-04
  0.81287927D-05 -0.73334698D-05 -0.30792251D-04 -0.55217833D-04  0.61447921D-04
  0.11074283D-04  0.19976427D-04  0.29450519D-04 -0.86759709D-04  0.81292084D-05
 -0.73344467D-05 -0.37962251D-04  0.61621387D-04  0.50336499D-04  0.11077867D-04
  0.19982891D-04  0.29460048D-04 -0.86756054D-04  0.81248461D-05 -0.73272367D-05
  0.67270476D-04  0.94723861D-05  0.56220475D-04  0.11459447D-03  0.21370615D-03
  0.35963591D-03  0.56624993D-03  0.75110370D-03  0.48930549D-03  0.49871034D-03
  0.84044325D-03  0.17911338D-03 -0.59898078D-03 -0.13558928D-03 -0.89703134D-04
  0.58097821D-04 -0.21780755D-04  0.15302006D-04  0.63038878D-04 -0.16094375D-07
  0.16348722D-06  0.17305266D-05 -0.76885665D+00 -0.10282909D+01 -0.11877554D+01
  0.82534354D+01  0.11038381D+02  0.12750182D+02  0.87319797D+02  0.11678400D+03
  0.13489453D+03 -0.98861449D+00 -0.46629620D+00 -0.82408003D-01  0.10612468D+02
  0.50055441D+01  0.88462420D+00  0.11227792D+03  0.52957717D+02  0.93591579D+01
 -0.87827370D-03 -0.18347555D-02 -0.11691497D-02  0.94278706D-02  0.19695270D-01
  0.12550293D-01  0.99745089D-01  0.20837223D+00  0.13277973D+00  0.32971309D-03
 -0.35389107D-02 -0.37440967D-01 -0.92758861D-04  0.99537771D-03  0.10530886D-01
  0.96760259D-05 -0.10374575D-03 -0.10976049D-02 -0.10774382D-05  0.11537840D-04
  0.12206722D-03 -0.22540506D-03 -0.16802363D-03 -0.77886697D-04 -0.18211793D-04
 -0.21938261D-03 -0.16353432D-03 -0.75805695D-04 -0.17725205D-04  0.44478767D-03
  0.33155795D-03  0.15369239D-03  0.35936998D-04 -0.10686148D-05 -0.79657725D-06
 -0.36925027D-06 -0.86339644D-07 -0.11045644D-04 -0.82337517D-05 -0.38167234D-05
 -0.89244225D-06  0.12665164D-03  0.94409900D-04  0.43763340D-04  0.10232927D-04
 -0.21860178D-04 -0.21289873D-04  0.43150051D-04 -0.11020442D-06 -0.11754144D-05
  0.12290591D-04  0.74029692D-05  0.72088450D-05 -0.14611814D-04  0.37205249D-07
  0.39559299D-06 -0.41623936D-05 -0.42877543D-06 -0.80069788D-06 -0.13630103D-05
 -0.21128943D-05 -0.28452303D-05 -0.21565068D-05  0.47795792D-05  0.11133621D-04
  0.27157522D-05 -0.25846688D-04  0.26722964D-04 -0.20857948D-04  0.24456247D-04
 -0.12586346D-03 -0.14351292D-06  0.14572245D-05  0.15402853D-04  0.75048675D-06
  0.96104652D-06  0.10283095D-05  0.81823922D-06  0.18832214D-06 -0.78673361D-05
 -0.10074630D-04 -0.10779746D-04 -0.85775838D-05 -0.19741769D-05 -0.83206030D-04
 -0.10655067D-03 -0.11400807D-03 -0.90717707D-04 -0.20879166D-04 -0.60274592D-06
  0.12525075D-06  0.63193972D-05 -0.13131723D-05  0.66835016D-04 -0.13888333D-04
 -0.18855990D-06  0.19756329D-05  0.20894315D-04  0.10598457D-06 -0.11091989D-05
 -0.11730829D-04 -0.42483987D-07  0.45413712D-06  0.48054183D-05 -0.63743737D-06
 -0.62039172D-06  0.12578291D-05 -0.32661195D-08 -0.33300449D-07  0.35824748D-06
MO    5     MO 0.0        OCC NO =    2.0000000  ORB. ENERGY =  -56.050628
 -0.50759030D-09 -0.94492646D-09 -0.15543951D-08 -0.20872918D-08 -0.19652639D-08
 -0.16149882D-09  0.16817985D-08  0.44688536D-08 -0.60243268D-11 -0.61678660D-05
 -0.57716029D-05 -0.44703295D-05  0.15396006D-04  0.14406868D-04  0.11158676D-04
 -0.15135678D-05 -0.14163266D-05 -0.10969997D-05 -0.51194339D-08  0.48217157D-05
 -0.12040941D-04  0.11854107D-05  0.73584118D-08 -0.39954865D-05  0.99702109D-05
 -0.98186069D-06 -0.61471720D-08  0.12623191D-05 -0.31497802D-05  0.30606625D-06
  0.28638458D-06 -0.45701379D-06  0.17062921D-06  0.30324435D-05  0.43850013D-06
 -0.16799948D-05 -0.26842493D-06 -0.48420027D-06 -0.71383883D-06  0.15839534D-05
  0.13278051D-04 -0.17433942D-04  0.94630188D-05 -0.39924255D-05 -0.14672929D-04
  0.39512367D-06  0.71274673D-06  0.10507765D-05 -0.23377935D-05 -0.19528529D-04
  0.25635942D-04 -0.38596047D-05  0.29108644D-05  0.21953967D-04 -0.12634225D-06
 -0.22790340D-06 -0.33598968D-06  0.74535653D-06  0.62419078D-05 -0.81978783D-05
 -0.67411368D-07 -0.12740648D-04 -0.59118877D-05 -0.13215691D-07 -0.24645817D-07
 -0.41475273D-07 -0.65303186D-07 -0.86621581D-07 -0.56429512D-07 -0.56111423D-07
 -0.94560836D-07 -0.20152593D-07  0.65579868D-07  0.20236082D-07  0.34721567D-08
 -0.21946649D-08  0.19985227D-08 -0.21792310D-08 -0.45375025D-08  0.31779078D-05
 -0.79291989D-05  0.77684383D-06 -0.32497779D+02 -0.43463461D+02 -0.50203651D+02
  0.81082156D+02  0.10844160D+03  0.12525841D+03 -0.79500010D+01 -0.10632559D+02
 -0.12281426D+02 -0.41786407D+02 -0.19709242D+02 -0.34831923D+01  0.10425734D+03
  0.49174679D+02  0.86905859D+01 -0.10222298D+02 -0.48215140D+01 -0.85210076D+00
 -0.37074755D-01 -0.77450925D-01 -0.49353567D-01  0.92501749D-01  0.19324055D+00
  0.12313746D+00 -0.90696722D-02 -0.18946976D-01 -0.12073463D-01  0.13797982D-01
 -0.34426075D-01  0.33754140D-02 -0.38196859D-02  0.95301541D-02 -0.93440675D-03
  0.37712188D-03 -0.94092417D-03  0.92253368D-04 -0.38028022D-04  0.94880813D-04
 -0.93034198D-05  0.53812614D-05  0.40113522D-05  0.18594466D-05  0.43478360D-06
  0.16403005D-03  0.12227288D-03  0.56679115D-04  0.13252948D-04 -0.16941131D-03
 -0.12628423D-03 -0.58538562D-04 -0.13687731D-04 -0.86075213D-04 -0.64163022D-04
 -0.29742518D-04 -0.69545201D-05 -0.69069639D-03 -0.51486562D-03 -0.23866395D-03
 -0.55805403D-04  0.17121583D-02  0.12762937D-02  0.59162095D-03  0.13833529D-03
 -0.28156317D-07 -0.19370192D-05  0.19651755D-05  0.13342644D-05  0.79666782D-05
 -0.19821259D-04 -0.56885614D-09  0.20852257D-06 -0.20795371D-06 -0.18138485D-06
 -0.83561361D-06  0.20874982D-05  0.25716821D-10  0.48023750D-10  0.81749765D-10
  0.12672583D-09  0.17064942D-09  0.12934160D-09 -0.28564651D-09 -0.66538914D-09
 -0.16230407D-09  0.15684984D-08 -0.16741637D-08  0.15037139D-08 -0.20860866D-08
  0.10887746D-07  0.25759832D-06 -0.64311294D-06  0.61613780D-07  0.14703876D-04
  0.18829258D-04  0.20147105D-04  0.16031313D-04  0.36896926D-05 -0.36689920D-04
 -0.46983801D-04 -0.50272163D-04 -0.40002214D-04 -0.92067238D-05  0.36224574D-05
  0.46387895D-05  0.49634550D-05  0.39494857D-05  0.90899529D-06 -0.11806227D-04
  0.24533368D-05  0.29459573D-04 -0.61217065D-05 -0.29085117D-05  0.60438945D-06
 -0.37238637D-05  0.92919752D-05 -0.91746735D-06  0.19148676D-05 -0.47781062D-05
  0.47176591D-06 -0.70315566D-06  0.17546466D-05 -0.17396236D-06 -0.51344639D-07
 -0.21459178D-07  0.72803817D-07 -0.44941911D-06  0.33405240D-06 -0.72958269D-06
MO    6     MO 0.0        OCC NO =    2.0000000  ORB. ENERGY =  -56.050628
  0.64076629D-09  0.11928459D-08  0.19622203D-08  0.26349326D-08  0.24808884D-08
  0.20387111D-09 -0.21731804D-08 -0.57745471D-08  0.77844929D-11  0.15452576D-04
  0.14459804D-04  0.11199677D-04  0.61534415D-05  0.57581051D-05  0.44598750D-05
 -0.43819793D-06 -0.41004530D-06 -0.31759594D-06  0.71861913D-08 -0.12073188D-04
 -0.48101300D-05  0.33942290D-06 -0.13504112D-07  0.10014226D-04  0.39869119D-05
 -0.28058047D-06  0.72928408D-08 -0.31644094D-05 -0.12592349D-05  0.92705626D-07
 -0.14563751D-05  0.13930080D-05  0.63367162D-07  0.42082906D-06 -0.18747425D-05
 -0.97849513D-06 -0.30213248D-06 -0.54500390D-06 -0.80347940D-06  0.17927774D-05
  0.14878413D-04 -0.19533546D-04 -0.65119990D-05  0.40311359D-05 -0.17409273D-04
 -0.83108793D-07 -0.14991641D-06 -0.22101630D-06  0.49684318D-06  0.40619006D-05
 -0.53316982D-05 -0.10045168D-04 -0.77763232D-05 -0.39924860D-05  0.38316734D-06
  0.69117922D-06  0.10189804D-05 -0.22655374D-05 -0.18929841D-04  0.24860139D-04
  0.26932476D-05 -0.17794014D-05  0.21773444D-04  0.28795763D-07  0.53700948D-07
  0.90370770D-07  0.14228958D-06  0.18874038D-06  0.12295467D-06  0.12080746D-06
  0.20358876D-06  0.43388378D-07 -0.13323624D-06 -0.55374601D-07  0.18330429D-08
 -0.24876610D-08 -0.95796330D-09  0.20940308D-08  0.36105458D-08 -0.79662854D-05
 -0.31704527D-05  0.22991269D-06  0.81467340D+02  0.10895676D+03  0.12585346D+03
  0.32422021D+02  0.43362141D+02  0.50086618D+02 -0.23471923D+01 -0.31392023D+01
 -0.36260208D+01  0.10475262D+03  0.49408285D+02  0.87318708D+01  0.41688996D+02
  0.19663297D+02  0.34750724D+01 -0.30180748D+01 -0.14235244D+01 -0.25157786D+00
  0.92941181D-01  0.19415854D+00  0.12372243D+00  0.36988334D-01  0.77270388D-01
  0.49238524D-01 -0.26777806D-02 -0.55940109D-02 -0.35646365D-02 -0.34589617D-01
 -0.13765833D-01  0.99661399D-03  0.95754262D-02  0.38107897D-02 -0.27590994D-03
 -0.94539222D-03 -0.37624336D-03  0.27246266D-04  0.95330443D-04  0.37939452D-04
 -0.27469071D-05 -0.12102377D-04 -0.90214717D-05 -0.41818680D-05 -0.97782187D-06
  0.62198585D-04  0.46364674D-04  0.21492164D-04  0.50253876D-05 -0.50096207D-04
 -0.37343202D-04 -0.17310296D-04 -0.40475658D-05  0.15689447D-03  0.11695381D-03
  0.54213480D-04  0.12676423D-04  0.17370185D-02  0.12948253D-02  0.60021119D-03
  0.14034389D-03  0.68693051D-03  0.51205842D-03  0.23736268D-03  0.55501135D-04
 -0.24518051D-07 -0.54940209D-06  0.57392014D-06 -0.17459651D-05 -0.20122950D-04
 -0.79896616D-05  0.21673253D-07  0.37302939D-07 -0.58976191D-07  0.17587514D-06
  0.21210426D-05  0.84600594D-06 -0.17245575D-10 -0.32204494D-10 -0.54820996D-10
 -0.84981730D-10 -0.11443667D-09 -0.86735850D-10  0.19083333D-09  0.44452994D-09
  0.10843132D-09 -0.10657076D-08  0.11764131D-08 -0.12033721D-08  0.18972733D-08
 -0.10069766D-07 -0.64540525D-06 -0.25684401D-06  0.19956762D-07 -0.36855489D-04
 -0.47195822D-04 -0.50499024D-04 -0.40182730D-04 -0.92482705D-05 -0.14673076D-04
 -0.18789816D-04 -0.20104902D-04 -0.15997732D-04 -0.36819637D-05  0.10281706D-05
  0.13166385D-05  0.14087891D-05  0.11209918D-05  0.25800227D-06  0.29592466D-04
 -0.61493218D-05  0.11781485D-04 -0.24481954D-05 -0.82566787D-06  0.17157399D-06
  0.93339270D-05  0.37160704D-05 -0.26030205D-06 -0.47996043D-05 -0.19108501D-05
  0.13390030D-06  0.17623037D-05  0.70177250D-06 -0.48169839D-07  0.24956026D-06
 -0.26682448D-06  0.17264215D-07 -0.16186095D-06 -0.71343919D-06 -0.24311812D-06
MO    7     MO 0.0        OCC NO =    2.0000000  ORB. ENERGY =  -10.088740
  0.43813572D+00  0.81563031D+00  0.13417042D+01  0.18016835D+01  0.16963530D+01
  0.13940062D+00  0.37093811D+00  0.98565202D+00 -0.13287278D-02 -0.14618631D-04
 -0.13679437D-04 -0.10595253D-04  0.15522046D-03  0.14524810D-03  0.11250027D-03
  0.16423157D-02  0.15368028D-02  0.11903132D-02  0.78509339D-02  0.80593200D-05
 -0.84747355D-04 -0.89670205D-03 -0.14091789D-02  0.30838049D-06 -0.31076898D-05
 -0.32844125D-04 -0.59728962D-03 -0.66120774D-06  0.69150538D-05  0.73147003D-04
  0.77501769D-03  0.75472552D-03 -0.15297432D-02  0.39014335D-05  0.41923343D-04
 -0.43594752D-03  0.44821016D-04  0.80850718D-04  0.11919527D-03 -0.12289652D-02
  0.68894190D-03  0.99204659D-05 -0.10257822D-02 -0.20881041D-02 -0.16267834D-03
  0.44815710D-04  0.80841148D-04  0.11918116D-03 -0.12290036D-02  0.68895672D-03
  0.99121923D-05 -0.12693821D-02  0.18804414D-02 -0.54016285D-03  0.44828488D-04
  0.80864197D-04  0.11921514D-03 -0.12289272D-02  0.68892417D-03  0.99466569D-05
  0.23045413D-02  0.10908260D-03 -0.34016669D-03 -0.53697395D-06 -0.10013977D-05
 -0.16852045D-05 -0.26533694D-05 -0.35195688D-05 -0.22928184D-05  0.11036308D-04
  0.18598753D-04  0.39637244D-05 -0.98731482D-04  0.17704976D-03 -0.22450849D-03
  0.18978135D-03 -0.12529596D-03  0.10425599D-03  0.15092248D-03 -0.18821726D-06
  0.19889493D-05  0.21041460D-04 -0.10494302D-05 -0.14035381D-05 -0.16211947D-05
  0.10442176D-04  0.13965666D-04  0.16131422D-04  0.11030327D-03  0.14752275D-03
  0.17040016D-03 -0.17918637D-05 -0.84516181D-06 -0.14936450D-06  0.16575793D-04
  0.78182441D-05  0.13817095D-05  0.17475179D-03  0.82424541D-04  0.14566797D-04
  0.14354790D-06  0.29987838D-06  0.19108962D-06 -0.11877115D-05 -0.24811859D-05
 -0.15810705D-05 -0.12480466D-04 -0.26072287D-04 -0.16613880D-04  0.84770138D-07
 -0.22387626D-05 -0.24027502D-04 -0.46875332D-06  0.59685547D-05  0.63400965D-04
  0.64566934D-06 -0.71161965D-05 -0.75358730D-04 -0.40427916D-06  0.43936869D-05
  0.46513564D-04 -0.67306127D-03 -0.50171988D-03 -0.23257029D-03 -0.54380559D-04
 -0.65547225D-03 -0.48860851D-03 -0.22649256D-03 -0.52959439D-04  0.13285335D-02
  0.99032839D-03  0.45906286D-03  0.10734000D-03 -0.33304165D-05 -0.24825915D-05
 -0.11507956D-05 -0.26908384D-06 -0.35876333D-04 -0.26743285D-04 -0.12396745D-04
 -0.28986589D-05  0.37845190D-03  0.28210930D-03  0.13077066D-03  0.30577344D-04
  0.63402665D-04  0.61746744D-04 -0.12514941D-03  0.31290123D-06  0.33755238D-05
 -0.35649650D-04 -0.13911533D-04 -0.13550669D-04  0.27462201D-04 -0.66914131D-07
 -0.73401780D-06  0.78211904D-05 -0.43172901D-05 -0.80621342D-05 -0.13723992D-04
 -0.21274488D-04 -0.28648295D-04 -0.21713618D-04 -0.92740128D-05 -0.21603020D-04
 -0.52694851D-05 -0.15700858D-04  0.56471542D-04 -0.12080559D-03  0.16785987D-03
  0.43164272D-05 -0.54233100D-07  0.51639504D-06  0.54480121D-05  0.15500029D-05
  0.19848783D-05  0.21237985D-05  0.16899341D-05  0.38894738D-06 -0.16188371D-04
 -0.20730249D-04 -0.22181144D-04 -0.17649825D-04 -0.40622017D-05 -0.17118928D-03
 -0.21921888D-03 -0.23456185D-03 -0.18664391D-03 -0.42957096D-04 -0.16109956D-05
  0.33476528D-06  0.16747404D-04 -0.34801147D-05  0.17709563D-03 -0.36800516D-04
 -0.15218837D-05  0.15794503D-04  0.16701997D-03  0.13826895D-05 -0.14333058D-04
 -0.15156639D-03  0.43811779D-06 -0.44973084D-05 -0.47547234D-04 -0.10287841D-03