 Single Point Energy
GAUSSIAN             31 MOL ORBITALS    210 PRIMITIVES        6 NUCLEI   B3LYP
  C    1    (CENTRE  1)  -0.93872785  0.94042467  1.69208810  CHARGE =  6.0
  H    2    (CENTRE  2)  -0.51390327 -0.95831036  2.30445709  CHARGE =  1.0
  H    3    (CENTRE  3)  -2.32661602  1.01913616  0.19936322  CHARGE =  1.0
  H    4    (CENTRE  4)   0.72321017  2.06079927  1.31340552  CHARGE =  1.0
  Br   5    (CENTRE  5)   1.45733243 -1.45938015 -2.62609908  CHARGE = 35.0
  Cl   6    (CENTRE  6)  -2.54452700  2.54789013  4.58492432  CHARGE = 17.0
CENTRE ASSIGNMENTS    1  1  1  1  1  1  1  1  1  1  1  1  1  1  1  1  1  1  1  1
CENTRE ASSIGNMENTS    1  1  1  1  1  1  1  1  1  1  1  1  1  1  1  1  2  2  2  2
CENTRE ASSIGNMENTS    2  2  2  2  2  3  3  3  3  3  3  3  3  3  4  4  4  4  4  4
CENTRE ASSIGNMENTS    4  4  4  5  5  5  5  5  5  5  5  5  5  5  5  5  5  5  5  5
CENTRE ASSIGNMENTS    5  5  5  5  5  5  5  5  5  5  5  5  5  5  5  5  5  5  5  5
CENTRE ASSIGNMENTS    5  5  5  5  5  5  5  5  5  5  5  5  5  5  5  5  5  5  5  5
CENTRE ASSIGNMENTS    5  5  5  5  5  5  5  5  5  5  5  5  5  5  5  5  5  5  5  5
CENTRE ASSIGNMENTS    5  5  5  5  5  5  5  5  5  5  5  5  5  5  5  5  5  6  6  6
CENTRE ASSIGNMENTS    6  6  6  6  6  6  6  6  6  6  6  6  6  6  6  6  6  6  6  6
CENTRE ASSIGNMENTS    6  6  6  6  6  6  6  6  6  6  6  6  6  6  6  6  6  6  6  6
CENTRE ASSIGNMENTS    6  6  6  6  6  6  6  6  6  6
TYPE ASSIGNMENTS      1  1  1  1  1  1  1  1  1  2  2  2  3  3  3  4  4  4  1  2
TYPE ASSIGNMENTS      3  4  1  2  3  4  1  2  3  4  5  6  7  8  9 10  1  1  1  1
TYPE ASSIGNMENTS      1  1  2  3  4  1  1  1  1  1  1  2  3  4  1  1  1  1  1  1
TYPE ASSIGNMENTS      2  3  4  1  1  1  1  1  1  1  1  1  1  1  1  1  1  1  1  2
TYPE ASSIGNMENTS      3  4  2  2  2  3  3  3  4  4  4  2  2  2  3  3  3  4  4  4
TYPE ASSIGNMENTS      2  2  2  3  3  3  4  4  4  2  3  4  2  3  4  2  3  4  2  3
TYPE ASSIGNMENTS      4  5  5  5  5  6  6  6  6  7  7  7  7  8  8  8  8  9  9  9
TYPE ASSIGNMENTS      9 10 10 10 10  5  6  7  8  9 10  5  6  7  8  9 10  1  1  1
TYPE ASSIGNMENTS      1  1  1  1  1  1  1  1  1  1  1  2  3  4  2  2  2  2  2  3
TYPE ASSIGNMENTS      3  3  3  3  4  4  4  4  4  2  2  3  3  4  4  2  3  4  2  3
TYPE ASSIGNMENTS      4  2  3  4  5  6  7  8  9 10
EXPONENTS  0.4563240D+04 0.6820240D+03 0.1549730D+03 0.4445530D+02 0.1302900D+02
EXPONENTS  0.1827730D+01 0.2096420D+02 0.4803310D+01 0.1459330D+01 0.2096420D+02
EXPONENTS  0.4803310D+01 0.1459330D+01 0.2096420D+02 0.4803310D+01 0.1459330D+01
EXPONENTS  0.2096420D+02 0.4803310D+01 0.1459330D+01 0.4834560D+00 0.4834560D+00
EXPONENTS  0.4834560D+00 0.4834560D+00 0.1455850D+00 0.1455850D+00 0.1455850D+00
EXPONENTS  0.1455850D+00 0.4380000D-01 0.4380000D-01 0.4380000D-01 0.4380000D-01
EXPONENTS  0.6260000D+00 0.6260000D+00 0.6260000D+00 0.6260000D+00 0.6260000D+00
EXPONENTS  0.6260000D+00 0.3386500D+02 0.5094790D+01 0.1158790D+01 0.3258400D+00
EXPONENTS  0.1027410D+00 0.3600000D-01 0.7500000D+00 0.7500000D+00 0.7500000D+00
EXPONENTS  0.3386500D+02 0.5094790D+01 0.1158790D+01 0.3258400D+00 0.1027410D+00
EXPONENTS  0.3600000D-01 0.7500000D+00 0.7500000D+00 0.7500000D+00 0.3386500D+02
EXPONENTS  0.5094790D+01 0.1158790D+01 0.3258400D+00 0.1027410D+00 0.3600000D-01
EXPONENTS  0.7500000D+00 0.7500000D+00 0.7500000D+00 0.4397000D+06 0.6603000D+05
EXPONENTS  0.1514000D+05 0.4317000D+04 0.1414000D+04 0.5239000D+03 0.5239000D+03
EXPONENTS  0.2077000D+03 0.8654000D+02 0.3052000D+02 0.1298000D+02 0.4412000D+01
EXPONENTS  0.1862000D+01 0.3932000D+00 0.1400000D+00 0.3500000D-01 0.3500000D-01
EXPONENTS  0.3500000D-01 0.3500000D-01 0.2957000D+04 0.7003000D+03 0.2246000D+03
EXPONENTS  0.2957000D+04 0.7003000D+03 0.2246000D+03 0.2957000D+04 0.7003000D+03
EXPONENTS  0.2246000D+03 0.8259000D+02 0.3319000D+02 0.1420000D+02 0.8259000D+02
EXPONENTS  0.3319000D+02 0.1420000D+02 0.8259000D+02 0.3319000D+02 0.1420000D+02
EXPONENTS  0.1420000D+02 0.7438000D+01 0.3526000D+01 0.1420000D+02 0.7438000D+01
EXPONENTS  0.3526000D+01 0.1420000D+02 0.7438000D+01 0.3526000D+01 0.1595000D+01
EXPONENTS  0.1595000D+01 0.1595000D+01 0.8462000D+00 0.8462000D+00 0.8462000D+00
EXPONENTS  0.3186000D+00 0.3186000D+00 0.3186000D+00 0.1096000D+00 0.1096000D+00
EXPONENTS  0.1096000D+00 0.1348000D+03 0.3639000D+02 0.1216000D+02 0.4341000D+01
EXPONENTS  0.1348000D+03 0.3639000D+02 0.1216000D+02 0.4341000D+01 0.1348000D+03
EXPONENTS  0.3639000D+02 0.1216000D+02 0.4341000D+01 0.1348000D+03 0.3639000D+02
EXPONENTS  0.1216000D+02 0.4341000D+01 0.1348000D+03 0.3639000D+02 0.1216000D+02
EXPONENTS  0.4341000D+01 0.1348000D+03 0.3639000D+02 0.1216000D+02 0.4341000D+01
EXPONENTS  0.1535000D+01 0.1535000D+01 0.1535000D+01 0.1535000D+01 0.1535000D+01
EXPONENTS  0.1535000D+01 0.4510000D+00 0.4510000D+00 0.4510000D+00 0.4510000D+00
EXPONENTS  0.4510000D+00 0.4510000D+00 0.1058190D+06 0.1587200D+05 0.3619650D+04
EXPONENTS  0.1030800D+04 0.3399080D+03 0.1245380D+03 0.1245380D+03 0.4951350D+02
EXPONENTS  0.2080560D+02 0.6583460D+01 0.2564680D+01 0.5597630D+00 0.1832730D+00
EXPONENTS  0.4830000D-01 0.4830000D-01 0.4830000D-01 0.4830000D-01 0.5897760D+03
EXPONENTS  0.1398490D+03 0.4514130D+02 0.1687330D+02 0.2771520D+01 0.5897760D+03
EXPONENTS  0.1398490D+03 0.4514130D+02 0.1687330D+02 0.2771520D+01 0.5897760D+03
EXPONENTS  0.1398490D+03 0.4514130D+02 0.1687330D+02 0.2771520D+01 0.6741100D+01
EXPONENTS  0.2771520D+01 0.6741100D+01 0.2771520D+01 0.6741100D+01 0.2771520D+01
EXPONENTS  0.1023870D+01 0.1023870D+01 0.1023870D+01 0.3813680D+00 0.3813680D+00
EXPONENTS  0.3813680D+00 0.1094370D+00 0.1094370D+00 0.1094370D+00 0.7500000D+00
EXPONENTS  0.7500000D+00 0.7500000D+00 0.7500000D+00 0.7500000D+00 0.7500000D+00
MO    1     MO 0.0        OCC NO =    2.0000000  ORB. ENERGY = -482.562402
 -0.16512846D-06 -0.30740196D-06 -0.50567334D-06 -0.67903442D-06 -0.63933650D-06
 -0.52538537D-07  0.42102112D-06  0.11187319D-05 -0.15081288D-08  0.10674145D-05
  0.99883694D-06  0.77363782D-06 -0.10686337D-05 -0.99997786D-06 -0.77452151D-06
 -0.19230284D-05 -0.17994808D-05 -0.13937674D-05 -0.15076618D-05 -0.12949118D-05
  0.12970264D-05  0.23338512D-05  0.20619970D-05  0.14078595D-05 -0.14090403D-05
 -0.25357902D-05  0.17879793D-05  0.82190546D-06 -0.82291580D-06 -0.14808864D-05
 -0.17847648D-06 -0.17801713D-06  0.35649361D-06 -0.47706524D-06 -0.85908922D-06
  0.85966596D-06  0.23181116D-08  0.41815425D-08  0.61646959D-08 -0.93285772D-06
 -0.20752372D-05 -0.14643452D-05 -0.44148725D-06  0.30130799D-06  0.92511082D-06
  0.22112533D-08  0.39887854D-08  0.58805211D-08 -0.93237226D-06 -0.20748865D-05
 -0.14646455D-05 -0.61225588D-06  0.48851248D-06  0.72516263D-06  0.24493466D-08
  0.44182718D-08  0.65136972D-08 -0.93355025D-06 -0.20757948D-05 -0.14640341D-05
 -0.32329089D-06  0.58962117D-06  0.83189794D-06  0.38584358D+01  0.71955606D+01
  0.12109067D+02  0.19065833D+02  0.25289924D+02  0.16475087D+02  0.96359562D+01
  0.16238834D+02  0.34607837D+01  0.81721524D-01 -0.11305974D-01  0.24815969D-02
 -0.64010690D-03  0.69668284D-04 -0.20583695D-04  0.11687121D-05 -0.88873690D-07
  0.88942702D-07  0.16006828D-06 -0.60108691D-04 -0.80391087D-04 -0.92857907D-04
  0.60254839D-04  0.80586549D-04  0.93083682D-04  0.10825671D-03  0.14478563D-03
  0.16723858D-03 -0.15323820D-04 -0.72277305D-05 -0.12773487D-05  0.15357554D-04
  0.72436414D-05  0.12801606D-05  0.27608322D-04  0.13021917D-04  0.23013488D-05
  0.11667631D-05  0.24374236D-05  0.15531842D-05 -0.11689232D-05 -0.24419362D-05
 -0.15560597D-05 -0.21029881D-05 -0.43932421D-05 -0.27994781D-05 -0.41081774D-05
  0.41155766D-05  0.74049564D-05  0.32976227D-05 -0.33035104D-05 -0.59439487D-05
 -0.15746047D-05  0.15773690D-05  0.28381769D-05  0.10002701D-05 -0.10019737D-05
 -0.18028900D-05  0.14602232D-04  0.10884938D-04  0.50456704D-05  0.11797998D-05
  0.14528704D-04  0.10830128D-04  0.50202636D-05  0.11738591D-05 -0.29130936D-04
 -0.21715066D-04 -0.10065934D-04 -0.23536588D-05  0.38950830D-04  0.29035106D-04
  0.13459110D-04  0.31470654D-05  0.70086314D-04  0.52244422D-04  0.24217698D-04
  0.56626834D-05 -0.70215885D-04 -0.52341008D-04 -0.24262470D-04 -0.56731522D-05
 -0.11669596D-05 -0.11610642D-05  0.23280238D-05 -0.31129284D-05 -0.56012743D-05
  0.56117092D-05  0.28948062D-06  0.28802654D-06 -0.57750716D-06  0.77223337D-06
  0.13895310D-05 -0.13921079D-05  0.86289213D-07  0.16113701D-06  0.27429996D-06
  0.42521090D-06  0.57259039D-06  0.43398774D-06 -0.31397505D-06 -0.73137804D-06
 -0.17840032D-06  0.11707877D-05 -0.11185198D-05  0.69713807D-06 -0.34771374D-06
  0.67655916D-05  0.29609917D-06 -0.29632289D-06 -0.53330256D-06 -0.17600846D-05
 -0.22539015D-05 -0.24116504D-05 -0.19189816D-05 -0.44166390D-06  0.17598289D-05
  0.22535741D-05  0.24113001D-05  0.19187028D-05  0.44159973D-06  0.31677459D-05
  0.40565022D-05  0.43404139D-05  0.34537238D-05  0.79489303D-06  0.15157202D-05
 -0.31496703D-06 -0.15154371D-05  0.31490820D-06 -0.27278556D-05  0.56684905D-06
  0.40031769D-06 -0.40027788D-06 -0.72050350D-06 -0.85945212D-07  0.85838437D-07
  0.15453678D-06  0.50862207D-06 -0.50914066D-06 -0.91625598D-06 -0.17513621D-06
 -0.17470771D-06  0.34984392D-06 -0.46816689D-06 -0.84262871D-06  0.84334677D-06
MO    2     MO 0.0        OCC NO =    2.0000000  ORB. ENERGY = -101.394131
  0.12535918D-05  0.23336775D-05  0.38388776D-05  0.51549683D-05  0.48535970D-05
  0.39885237D-06 -0.29614086D-05 -0.78690171D-05  0.10607985D-07 -0.14489056D-04
 -0.13558186D-04 -0.10501339D-04  0.14504955D-04  0.13573064D-04  0.10512862D-04
  0.26103705D-04  0.24426637D-04  0.18919374D-04 -0.94445697D-05  0.78133479D-05
 -0.78209777D-05 -0.14076612D-04  0.51347009D-04 -0.11052503D-04  0.11064964D-04
  0.19912355D-04 -0.10046121D-03  0.11301140D-04 -0.11313846D-04 -0.20360230D-04
  0.72325592D-06  0.71981542D-06 -0.14430713D-05  0.19323208D-05  0.34739114D-05
 -0.34784829D-05  0.89771960D-06  0.16193581D-05  0.23873607D-05 -0.19411036D-04
  0.19743482D-05  0.26893641D-05  0.63521740D-05 -0.14599183D-04 -0.37398460D-05
  0.89768945D-06  0.16193037D-05  0.23872805D-05 -0.19411015D-04  0.19741635D-05
  0.26898375D-05 -0.37846007D-05 -0.35415447D-05 -0.15513679D-04  0.89781218D-06
  0.16195251D-05  0.23876069D-05 -0.19412228D-04  0.19741139D-05  0.26891323D-05
  0.13273668D-04  0.22852702D-05 -0.92839859D-05  0.43138550D-07  0.80448676D-07
  0.13538325D-06  0.21316213D-06  0.28274946D-06  0.18419675D-06 -0.14816345D-05
 -0.24968996D-05 -0.53213364D-06  0.90083450D-05 -0.12686638D-04  0.11955532D-04
 -0.81431349D-05  0.48383105D-05 -0.71448074D-05 -0.14527517D-04  0.92908038D-06
 -0.93102259D-06 -0.16750346D-05  0.79293321D-05  0.10604916D-04  0.12249496D-04
 -0.79462758D-05 -0.10627577D-04 -0.12275671D-04 -0.14296381D-04 -0.19120390D-04
 -0.22085525D-04 -0.25060050D-04 -0.11819982D-04 -0.20889322D-05  0.25113797D-04
  0.11845333D-04  0.20934124D-05  0.45182872D-04  0.21311241D-04  0.37663117D-05
  0.30533731D-05  0.63786415D-05  0.40646217D-05 -0.30599357D-05 -0.63923510D-05
 -0.40733577D-05 -0.55052048D-05 -0.11500634D-04 -0.73284771D-05 -0.10751149D-04
  0.10774563D-04  0.19384688D-04  0.76509516D-05 -0.76680364D-05 -0.13795552D-04
 -0.19630064D-05  0.19680907D-05  0.35405434D-05  0.62708018D-06 -0.62902424D-06
 -0.11314788D-05 -0.46472085D-04 -0.34641674D-04 -0.16058013D-04 -0.37547517D-05
 -0.46332077D-04 -0.34537308D-04 -0.16009634D-04 -0.37434396D-05  0.92804162D-04
  0.69178982D-04  0.32067647D-04  0.74981913D-05 -0.12417838D-03 -0.92566254D-04
 -0.42908725D-04 -0.10033098D-04 -0.22346005D-03 -0.16657377D-03 -0.77214619D-04
 -0.18054645D-04  0.22371564D-03  0.16676429D-03  0.77302934D-04  0.18075296D-04
  0.36523417D-05  0.36412880D-05 -0.72936297D-05  0.97593221D-05  0.17562007D-04
 -0.17582166D-04 -0.92513354D-06 -0.92229086D-06  0.18474244D-05 -0.24719111D-05
 -0.44482638D-05  0.44534274D-05  0.12702094D+01  0.23719968D+01  0.40377975D+01
  0.62592628D+01  0.84287437D+01  0.63884611D+01  0.23318141D+01  0.54317617D+01
  0.13249345D+01  0.43915769D-01 -0.57080601D-02  0.68646215D-03 -0.22257620D-03
  0.13668188D-03  0.95292325D-05 -0.95385793D-05 -0.17166115D-04  0.32597645D-03
  0.41743380D-03  0.44664969D-03  0.35540497D-03  0.81798356D-04 -0.32628424D-03
 -0.41782795D-03 -0.44707142D-03 -0.35574055D-03 -0.81875592D-04 -0.58720832D-03
 -0.75195800D-03 -0.80458700D-03 -0.64022034D-03 -0.14735014D-03 -0.59345448D-04
  0.12331999D-04  0.59399593D-04 -0.12343250D-04  0.10690316D-03 -0.22214503D-04
 -0.21108666D-04  0.21128077D-04  0.38024181D-04  0.59751109D-06 -0.59769400D-06
 -0.10758955D-05 -0.81422516D-05  0.81504383D-05  0.14667864D-04  0.42989645D-05
  0.42870257D-05 -0.85859902D-05  0.11488697D-04  0.20675330D-04 -0.20696906D-04
MO    3     MO 0.0        OCC NO =    2.0000000  ORB. ENERGY =  -62.215556
 -0.16495415D-05 -0.30707746D-05 -0.50513953D-05 -0.67831761D-05 -0.63866160D-05
 -0.52483076D-06  0.51014485D-05  0.13555504D-04 -0.18273766D-07  0.14628993D-04
  0.13689133D-04  0.10602763D-04 -0.14645754D-04 -0.13704817D-04 -0.10614910D-04
 -0.26355353D-04 -0.24662117D-04 -0.19101763D-04 -0.21098893D-04 -0.18153727D-04
  0.18183278D-04  0.32718802D-04  0.29127589D-04  0.19911426D-04 -0.19928122D-04
 -0.35863807D-04  0.26012904D-04  0.11677958D-04 -0.11692304D-04 -0.21041007D-04
 -0.24881202D-05 -0.24816020D-05  0.49697222D-05 -0.66504454D-05 -0.11976212D-04
  0.11984301D-04  0.54878324D-08  0.98992666D-08  0.14594128D-07 -0.13091731D-04
 -0.29603293D-04 -0.20958036D-04 -0.61558049D-05  0.41687043D-05  0.12929663D-04
  0.40062225D-08  0.72266538D-08  0.10653993D-07 -0.13084906D-04 -0.29598339D-04
 -0.20962290D-04 -0.85769640D-05  0.68226701D-05  0.10095140D-04  0.72964990D-08
  0.13161843D-07  0.19404026D-07 -0.13101373D-04 -0.29611294D-04 -0.20953593D-04
 -0.44804553D-05  0.82555422D-05  0.11608132D-04 -0.12742134D+01 -0.23762687D+01
 -0.39989095D+01 -0.62963184D+01 -0.83517680D+01 -0.54407480D+01 -0.53839924D+01
 -0.90732829D+01 -0.19336777D+01  0.58198940D+01  0.24291998D+01  0.10310065D+00
 -0.10931336D-01  0.10104257D-02 -0.29550609D-03  0.16831085D-04 -0.12703006D-05
  0.12712886D-05  0.22879183D-05 -0.12387687D-02 -0.16567647D-02 -0.19136911D-02
  0.12427448D-02  0.16620825D-02  0.19198336D-02  0.22294671D-02  0.29817532D-02
  0.34441550D-02 -0.18248313D-02 -0.86071154D-03 -0.15211258D-03  0.18305397D-02
  0.86340400D-03  0.15258842D-03  0.32845262D-02  0.15492005D-02  0.27378846D-03
  0.91618599D-05  0.19139561D-04  0.12196182D-04 -0.91721460D-05 -0.19161049D-04
 -0.12209875D-04 -0.16528563D-04 -0.34528953D-04 -0.22002668D-04 -0.51865681D-04
  0.51953435D-04  0.93508223D-04  0.44353328D-04 -0.44430680D-04 -0.79954731D-04
 -0.22039714D-04  0.22078252D-04  0.39726820D-04  0.14168728D-04 -0.14192846D-04
 -0.25537853D-04  0.91561208D-04  0.68252446D-04  0.31638155D-04  0.73977658D-05
  0.91140361D-04  0.67938735D-04  0.31492735D-04  0.73637631D-05 -0.18270157D-03
 -0.13619118D-03 -0.63130890D-04 -0.14761529D-04  0.24387496D-03  0.18179164D-03
  0.84268806D-04  0.19704085D-04  0.43879499D-03  0.32709083D-03  0.15162168D-03
  0.35452815D-04 -0.43940477D-03 -0.32754538D-03 -0.15183238D-03 -0.35502083D-04
 -0.15010549D-04 -0.14934564D-04  0.29945113D-04 -0.40033318D-04 -0.72032757D-04
  0.72164965D-04  0.39806163D-05  0.39605977D-05 -0.79412140D-05  0.10618497D-04
  0.19106363D-04 -0.19141739D-04  0.25946612D-06  0.48452864D-06  0.82480236D-06
  0.12785819D-05  0.17217425D-05  0.13049733D-05 -0.26784808D-05 -0.62392922D-05
 -0.15219102D-05  0.14208170D-04 -0.14661152D-04  0.96966514D-05 -0.50033330D-05
  0.96031487D-04  0.42020211D-05 -0.42051943D-05 -0.75682331D-05 -0.20275858D-04
 -0.25964540D-04 -0.27781779D-04 -0.22106323D-04 -0.50878886D-05  0.20273037D-04
  0.25960926D-04  0.27777913D-04  0.22103247D-04  0.50871806D-05  0.36492087D-04
  0.46730463D-04  0.50001094D-04  0.39786521D-04  0.91570809D-05  0.16094697D-04
 -0.33444819D-05 -0.16091911D-04  0.33439031D-05 -0.28966138D-04  0.60191705D-05
  0.50845598D-05 -0.50840469D-05 -0.91513353D-05 -0.11123897D-05  0.11108847D-05
  0.19999887D-05  0.71997295D-05 -0.72070817D-05 -0.12969955D-04 -0.24792283D-05
 -0.24731553D-05  0.49523837D-05 -0.66273444D-05 -0.11928187D-04  0.11938382D-04
MO    4     MO 0.0        OCC NO =    2.0000000  ORB. ENERGY =  -56.033434
  0.26649943D-05  0.49611343D-05  0.81610193D-05  0.10958879D-04  0.10318198D-04
  0.84791501D-06 -0.72138714D-05 -0.19168607D-04  0.25840621D-07  0.14389026D-04
  0.13464583D-04  0.10428840D-04 -0.14425099D-04 -0.13498338D-04 -0.10454985D-04
 -0.25962440D-04 -0.24294447D-04 -0.18816988D-04  0.13229408D-04 -0.65632441D-05
  0.66037343D-05  0.11882336D-04  0.62254356D-04  0.11424296D-04 -0.11441835D-04
 -0.20594684D-04  0.84442083D-04 -0.22282976D-04  0.22311238D-04  0.40151300D-04
  0.87238989D-05  0.87006496D-05 -0.17424548D-04  0.23321661D-04  0.41933433D-04
 -0.41997521D-04  0.11187296D-04  0.20180286D-04  0.29751061D-04 -0.85207538D-04
  0.11306371D-04 -0.69172725D-05 -0.13277143D-04 -0.37259466D-04  0.71221493D-04
  0.11186808D-04  0.20179405D-04  0.29749762D-04 -0.85206377D-04  0.11296170D-04
 -0.69063709D-05 -0.75486420D-04  0.30606257D-04 -0.10005962D-05  0.11188576D-04
  0.20182595D-04  0.29754465D-04 -0.85210109D-04  0.11296431D-04 -0.69018441D-05
  0.29191337D-04  0.66360811D-04  0.37213728D-04  0.44599596D-04  0.83173367D-04
  0.13996850D-03  0.22038165D-03  0.29232581D-03  0.19043526D-03  0.19994009D-03
  0.33694568D-03  0.71809106D-04 -0.26374164D-03 -0.97822600D-05 -0.80231380D-04
  0.54461327D-04 -0.23193436D-04  0.16638892D-04  0.53385354D-04 -0.14115369D-06
  0.13961963D-06  0.25689783D-06 -0.38277599D+02 -0.51193559D+02 -0.59132510D+02
  0.38362900D+02  0.51307643D+02  0.59264286D+02  0.68968465D+02  0.92240402D+02
  0.10654478D+03 -0.49218131D+02 -0.23214537D+02 -0.41026790D+01  0.49327813D+02
  0.23266270D+02  0.41118218D+01  0.88681083D+02  0.41827883D+02  0.73921948D+01
 -0.43713220D-01 -0.91318994D-01 -0.58190630D-01  0.43810612D-01  0.91522450D-01
  0.58320277D-01  0.78762364D-01  0.16453832D+00  0.10484772D+00  0.16391705D-01
 -0.16428151D-01 -0.29534580D-01 -0.46020304D-02  0.46122227D-02  0.82919697D-02
  0.47694839D-03 -0.47799007D-03 -0.85937807D-03 -0.53759903D-04  0.53873977D-04
  0.96868298D-04 -0.13947153D-04 -0.10396622D-04 -0.48193137D-05 -0.11268721D-05
 -0.13643027D-04 -0.10169918D-04 -0.47142259D-05 -0.11023000D-05  0.27590180D-04
  0.20566541D-04  0.95335395D-05  0.22291721D-05 -0.38043218D-04 -0.28358546D-04
 -0.13145493D-04 -0.30737342D-05 -0.67503839D-04 -0.50319368D-04 -0.23325347D-04
 -0.54540302D-05  0.68187033D-04  0.50828642D-04  0.23561418D-04  0.55092294D-05
 -0.58531206D-05 -0.58313230D-05  0.11684444D-04 -0.15605484D-04 -0.28100242D-04
  0.28131879D-04  0.18258568D-05  0.18190088D-05 -0.36448656D-05  0.48735877D-05
  0.87724674D-05 -0.87839122D-05 -0.40027367D-06 -0.74747353D-06 -0.12724076D-05
 -0.19724450D-05 -0.26561009D-05 -0.20131585D-05  0.44544955D-05  0.10376366D-04
  0.25310400D-05 -0.24278597D-04  0.25525390D-04 -0.21121839D-04  0.26945566D-04
 -0.15801063D-03 -0.76835487D-05  0.76876489D-05  0.13836986D-04  0.49197887D-04
  0.63001056D-04  0.67410455D-04  0.53639376D-04  0.12345390D-04 -0.49267516D-04
 -0.63090221D-04 -0.67505860D-04 -0.53715291D-04 -0.12362862D-04 -0.88635545D-04
 -0.11350351D-03 -0.12144754D-03 -0.96637388D-04 -0.22241612D-04 -0.38676112D-04
  0.80369055D-05  0.38731160D-04 -0.80483445D-05  0.69679422D-04 -0.14479401D-04
 -0.13133435D-04  0.13151728D-04  0.23661271D-04  0.71819088D-05 -0.71917721D-05
 -0.12938940D-04 -0.33545901D-05  0.33603118D-05  0.60455105D-05 -0.26568341D-06
 -0.26444974D-06  0.53013314D-06 -0.70925499D-06 -0.12752476D-05  0.12780774D-05
MO    5     MO 0.0        OCC NO =    2.0000000  ORB. ENERGY =  -56.033225
  0.32649738D-09  0.60780518D-09  0.99983380D-09  0.13426090D-08  0.12641170D-08
  0.10388091D-09 -0.12969282D-08 -0.34461811D-08  0.46456929D-11  0.13504371D-04
  0.12636764D-04  0.97876624D-05  0.11863632D-04  0.11101437D-04  0.85984918D-05
  0.91488383D-06  0.85610586D-06  0.66308708D-06  0.49168230D-08 -0.10891505D-04
 -0.95647567D-05 -0.73906439D-06 -0.17167824D-07  0.78180806D-05  0.68715032D-05
  0.53024135D-06  0.44749303D-08 -0.21211221D-05 -0.18627021D-05 -0.14188896D-06
 -0.75074419D-06 -0.75134128D-06  0.15020855D-05 -0.64044591D-05  0.25264829D-05
 -0.28909783D-05 -0.36151529D-06 -0.65212200D-06 -0.96139972D-06  0.11729160D-06
  0.96024998D-05 -0.11349846D-04 -0.53098237D-05 -0.70180344D-05 -0.11978261D-04
 -0.42626614D-06 -0.76892330D-06 -0.11335956D-05  0.13191483D-06  0.11339029D-04
 -0.13400771D-04  0.23557552D-05 -0.14461605D-04 -0.59236167D-05  0.78350397D-06
  0.14133294D-05  0.20836200D-05 -0.20941012D-06 -0.20930105D-04  0.24746320D-04
 -0.86398189D-05  0.11277632D-04  0.17096529D-04  0.10878510D-07  0.20287230D-07
  0.34140415D-07  0.53754386D-07  0.71302645D-07  0.46450012D-07  0.44806450D-07
  0.75509318D-07  0.16092376D-07 -0.46391706D-07 -0.26377839D-07  0.66194547D-08
 -0.50110180D-08  0.86753999D-09  0.38789257D-09  0.14308711D-08 -0.64224655D-05
 -0.56384037D-05 -0.42810809D-06  0.65831946D+02  0.88045532D+02  0.10169938D+03
  0.57796927D+02  0.77299267D+02  0.89286617D+02  0.43879639D+01  0.58685887D+01
  0.67786727D+01  0.84648421D+02  0.39925813D+02  0.70560440D+01  0.74316785D+02
  0.35052727D+02  0.61948291D+01  0.56421576D+01  0.26612159D+01  0.47031371D+00
  0.75108842D-01  0.15690594D+00  0.99984188D-01  0.65941531D-01  0.13775499D+00
  0.87780749D-01  0.50062965D-02  0.10458391D-01  0.66643351D-02 -0.27952983D-01
 -0.24541175D-01 -0.18631425D-02  0.77373064D-02  0.67929064D-02  0.51569525D-03
 -0.76350277D-03 -0.67030446D-03 -0.50882353D-04  0.76866942D-04  0.67483447D-04
  0.51224995D-05 -0.26253463D-03 -0.19570112D-03 -0.90716488D-04 -0.21211709D-04
  0.23196020D-03  0.17291003D-03  0.80151768D-04  0.18741422D-04  0.30574429D-04
  0.22791089D-04  0.10564720D-04  0.24702871D-05  0.37078610D-04  0.27639498D-04
  0.12812181D-04  0.29957979D-05  0.45414493D-03  0.33853313D-03  0.15692571D-03
  0.36693026D-04  0.43516550D-03  0.32438531D-03  0.15036754D-03  0.35159568D-04
  0.42278182D-05 -0.38119569D-05 -0.41586130D-06 -0.96509458D-06 -0.72329927D-05
 -0.72474843D-05 -0.67032022D-06  0.61014906D-06  0.60171163D-07  0.18136240D-06
  0.11401340D-05  0.11687496D-05 -0.23567069D-11 -0.44009291D-11 -0.74916040D-11
 -0.11613242D-10 -0.15638429D-10 -0.11852952D-10  0.24778695D-10  0.57719851D-10
  0.14079230D-10 -0.16689577D-09  0.24834364D-09 -0.55655991D-09  0.65485117D-09
 -0.49014771D-08 -0.52463170D-06 -0.45995556D-06 -0.34479661D-07 -0.29983844D-04
 -0.38396239D-04 -0.41083564D-04 -0.32690726D-04 -0.75239458D-05 -0.26349761D-04
 -0.33742563D-04 -0.36104180D-04 -0.28728566D-04 -0.66120333D-05 -0.20256832D-05
 -0.25940176D-05 -0.27755710D-05 -0.22085579D-05 -0.50831144D-06  0.24102742D-04
 -0.50085557D-05  0.21181317D-04 -0.44014829D-05  0.16282351D-05 -0.33834765D-06
  0.75850582D-05  0.66658776D-05  0.51257736D-06 -0.39542959D-05 -0.34749699D-05
 -0.26712135D-06  0.13022958D-05  0.11452869D-05  0.88830294D-07  0.10760850D-06
  0.68344401D-07 -0.17595290D-06  0.73735652D-06 -0.32699055D-06  0.29870374D-06
MO    6     MO 0.0        OCC NO =    2.0000000  ORB. ENERGY =  -56.033225
  0.11418240D-08  0.21256114D-08  0.34966108D-08  0.46953615D-08  0.44208599D-08
  0.36329148D-09 -0.32890760D-08 -0.87396908D-08  0.11781714D-10  0.89469550D-05
  0.83721455D-05  0.64845503D-05 -0.11025408D-04 -0.10317065D-04 -0.79909659D-05
  0.11083201D-04  0.10371146D-04  0.80328531D-05  0.72798130D-08 -0.72194072D-05
  0.88924306D-05 -0.89460477D-05  0.14441565D-07  0.51778070D-05 -0.63831134D-05
  0.64134502D-05  0.26841792D-07 -0.14106861D-05  0.17378167D-05 -0.17262626D-05
  0.31421583D-05 -0.30701963D-05 -0.71961998D-07 -0.22514068D-06  0.35043305D-05
  0.34299210D-05  0.70170758D-06  0.12657804D-05  0.18660939D-05 -0.21871267D-06
 -0.18627605D-04  0.22024203D-04 -0.13430142D-04  0.55270770D-05  0.14566146D-04
 -0.65708101D-06 -0.11852804D-05 -0.17474157D-05  0.15550537D-06  0.17641535D-04
 -0.20846956D-04  0.11774158D-04 -0.25714527D-05 -0.15752503D-04 -0.34147748D-07
 -0.61597665D-07 -0.90811195D-07 -0.12805901D-07  0.10056865D-05 -0.11846214D-05
 -0.60483224D-05  0.65323548D-05 -0.83168007D-05 -0.36848835D-07 -0.68719046D-07
 -0.11564401D-06 -0.18208253D-06 -0.24152384D-06 -0.15734038D-06 -0.15039361D-06
 -0.25344831D-06 -0.54014335D-07  0.14720533D-06  0.10125399D-06 -0.31373938D-07
  0.23586370D-07 -0.93954353D-08  0.64882900D-08  0.19129467D-07 -0.42479994D-05
  0.52382774D-05 -0.52674021D-05  0.43526488D+02  0.58213573D+02  0.67241168D+02
 -0.53678469D+02 -0.71791123D+02 -0.82924286D+02  0.54015284D+02  0.72241590D+02
  0.83444610D+02  0.55967485D+02  0.26397980D+02  0.46652854D+01 -0.69021166D+02
 -0.32554962D+02 -0.57534019D+01  0.69454251D+02  0.32759234D+02  0.57895026D+01
  0.49660135D-01  0.10374238D+00  0.66107108D-01 -0.61242708D-01 -0.12793893D+00
 -0.81525720D-01  0.61627016D-01  0.12874176D+00  0.82037307D-01 -0.18481798D-01
  0.22792431D-01 -0.22935556D-01  0.51156904D-02 -0.63088578D-02  0.63485302D-02
 -0.50479971D-03  0.62253806D-03 -0.62647292D-03  0.50820055D-04 -0.62673253D-04
  0.63075126D-04 -0.17571534D-03 -0.13098344D-03 -0.60716861D-04 -0.14197071D-04
 -0.21280824D-03 -0.15863359D-03 -0.73533982D-04 -0.17194023D-04  0.38852358D-03
  0.28961703D-03  0.13425084D-03  0.31391094D-04  0.38900252D-03  0.28997405D-03
  0.13441634D-03  0.31429790D-04  0.95131348D-04  0.70913735D-04  0.32871785D-04
  0.76862183D-05 -0.17195090D-03 -0.12817731D-03 -0.59416092D-04 -0.13892919D-04
  0.30359531D-05  0.32811249D-05 -0.63170780D-05 -0.63438977D-05 -0.13562033D-05
  0.30000827D-05 -0.49815125D-06 -0.50906565D-06  0.10072169D-05  0.10124325D-05
  0.20161824D-06 -0.49501043D-06 -0.13674966D-09 -0.25536717D-09 -0.43470586D-09
 -0.67386693D-09 -0.90743141D-09 -0.68777632D-09  0.15209594D-08  0.35429449D-08
  0.86420766D-09 -0.83079456D-08  0.87752144D-08 -0.74058399D-08  0.93359862D-08
 -0.55037671D-07 -0.34970550D-06  0.43048004D-06 -0.42548556D-06 -0.19822372D-04
 -0.25383822D-04 -0.27160417D-04 -0.21611897D-04 -0.49740938D-05  0.24447578D-04
  0.31306695D-04  0.33497828D-04  0.26654657D-04  0.61347121D-05 -0.24645143D-04
 -0.31559690D-04 -0.33768530D-04 -0.26870058D-04 -0.61842878D-05  0.15934705D-04
 -0.33112355D-05 -0.19652696D-04  0.40838351D-05  0.19810529D-04 -0.41166329D-05
  0.50142456D-05 -0.61842986D-05  0.62350638D-05 -0.26139964D-05  0.32239448D-05
 -0.32506076D-05  0.86075653D-06 -0.10617135D-05  0.10719534D-05 -0.34892254D-06
  0.37145206D-06 -0.22529530D-07 -0.36394029D-08 -0.41021184D-06 -0.38379357D-06
MO    7     MO 0.0        OCC NO =    2.0000000  ORB. ENERGY =  -10.082351
  0.43814006D+00  0.81563839D+00  0.13417175D+01  0.18017014D+01  0.16963698D+01
  0.13940200D+00  0.37090403D+00  0.98556146D+00 -0.13286057D-02 -0.11834573D-02
 -0.11074244D-02 -0.85774302D-03  0.11851660D-02  0.11090233D-02  0.85898144D-03
  0.21326016D-02  0.19955896D-02  0.15456613D-02  0.79047453D-02  0.61803271D-03
 -0.61881641D-03 -0.11135576D-02 -0.14797448D-02  0.24293458D-04 -0.24313064D-04
 -0.43764151D-04 -0.60875529D-03 -0.42415266D-04  0.42470611D-04  0.76426701D-04
  0.29373352D-03  0.29285298D-03 -0.58658650D-03  0.78495155D-03  0.14126103D-02
 -0.14141740D-02  0.52406858D-04  0.94534495D-04  0.13936876D-03 -0.12630483D-02
  0.72067489D-03  0.13818704D-04  0.43738769D-03 -0.21481294D-02  0.81118893D-03
  0.52406086D-04  0.94533102D-04  0.13936671D-03 -0.12630894D-02  0.72069069D-03
  0.13808431D-04 -0.16667279D-02  0.14715267D-03 -0.16322856D-02  0.52409689D-04
  0.94539602D-04  0.13937629D-03 -0.12630304D-02  0.72065908D-03  0.13842666D-04
  0.18733165D-02  0.13562126D-02 -0.33914703D-03 -0.45244652D-06 -0.84376327D-06
 -0.14199291D-05 -0.22356909D-05 -0.29655380D-05 -0.19318958D-05  0.82038637D-05
  0.13825424D-04  0.29464432D-05 -0.74778661D-04  0.13436370D-03 -0.16856329D-03
  0.13910076D-03 -0.72990692D-04  0.62620679D-04  0.15649665D-03 -0.10384857D-04
  0.10401363D-04  0.18716151D-04  0.38452538D-05  0.51427526D-05  0.59402760D-05
 -0.39227378D-05 -0.52463820D-05 -0.60599759D-05 -0.70428005D-05 -0.94192433D-05
 -0.10879953D-04  0.59579012D-04  0.28101416D-04  0.49663316D-05 -0.59931259D-04
 -0.28267558D-04 -0.49956939D-05 -0.10778049D-03 -0.50836430D-04 -0.89842652D-05
 -0.11084478D-04 -0.23156001D-04 -0.14755553D-04  0.11137857D-04  0.23267512D-04
  0.14826610D-04  0.20032987D-04  0.41849862D-04  0.26667725D-04  0.71342467D-04
 -0.71599953D-04 -0.12880168D-03 -0.77395188D-04  0.77625858D-04  0.13965321D-03
  0.45702013D-04 -0.45805510D-04 -0.82414781D-04 -0.16115575D-04  0.16155320D-04
  0.29066512D-04 -0.50765102D-04 -0.37841816D-04 -0.17541426D-04 -0.41016097D-05
 -0.50427065D-04 -0.37589834D-04 -0.17424621D-04 -0.40742977D-05  0.10119217D-03
  0.75431650D-04  0.34966047D-04  0.81759074D-05 -0.13512421D-03 -0.10072560D-03
 -0.46690959D-04 -0.10917475D-04 -0.24350503D-03 -0.18151589D-03 -0.84140981D-04
 -0.19674196D-04  0.24394120D-03  0.18184102D-03  0.84291694D-04  0.19709437D-04
  0.35954025D-05  0.35659125D-05 -0.71613150D-05  0.95544384D-05  0.17227732D-04
 -0.17263735D-04  0.16300745D-05  0.16315197D-05 -0.32615942D-05  0.43741329D-05
  0.78588573D-05 -0.78624311D-05 -0.79366229D-05 -0.14820899D-04 -0.25229287D-04
 -0.39109623D-04 -0.52665146D-04 -0.39916890D-04 -0.32312155D-04 -0.75268403D-04
 -0.18359735D-04  0.81498181D-04 -0.39081789D-04 -0.71942285D-04  0.22188292D-03
 -0.23610131D-04 -0.27994866D-05  0.27948327D-05  0.50319873D-05 -0.31443378D-03
 -0.40265266D-03 -0.43083403D-03 -0.34282024D-03 -0.78901915D-04  0.31475981D-03
  0.40307017D-03  0.43128076D-03  0.34317571D-03  0.78983727D-04  0.56645292D-03
  0.72537937D-03  0.77614815D-03  0.61759118D-03  0.14214192D-03  0.16072593D-03
 -0.33398888D-04 -0.16089285D-03  0.33433573D-04 -0.28954895D-03  0.60168342D-04
  0.73614437D-05 -0.73700869D-05 -0.13262313D-04  0.76302925D-04 -0.76382335D-04
 -0.13746070D-03  0.26761286D-04 -0.26783531D-04 -0.48203501D-04 -0.51431799D-04