 Single Point Energy
GAUSSIAN             31 MOL ORBITALS    210 PRIMITIVES        6 NUCLEI   B3LYP
  C    1    (CENTRE  1)   0.00018870 -0.01474972  1.02306817  CHARGE =  6.0
  H    2    (CENTRE  2)  -1.08223437 -1.70264669  1.35760334  CHARGE =  1.0
  H    3    (CENTRE  3)  -0.91610116  1.75877431  1.40718028  CHARGE =  1.0
  H    4    (CENTRE  4)   1.99880586 -0.11580283  1.38071346  CHARGE =  1.0
  Br   5    (CENTRE  5)   0.00058457  0.04621686 -3.23016636  CHARGE = 35.0
  Cl   6    (CENTRE  6)  -0.00129780 -0.08643626  6.04540686  CHARGE = 17.0
CENTRE ASSIGNMENTS    1  1  1  1  1  1  1  1  1  1  1  1  1  1  1  1  1  1  1  1
CENTRE ASSIGNMENTS    1  1  1  1  1  1  1  1  1  1  1  1  1  1  1  1  2  2  2  2
CENTRE ASSIGNMENTS    2  2  2  2  2  3  3  3  3  3  3  3  3  3  4  4  4  4  4  4
CENTRE ASSIGNMENTS    4  4  4  5  5  5  5  5  5  5  5  5  5  5  5  5  5  5  5  5
CENTRE ASSIGNMENTS    5  5  5  5  5  5  5  5  5  5  5  5  5  5  5  5  5  5  5  5
CENTRE ASSIGNMENTS    5  5  5  5  5  5  5  5  5  5  5  5  5  5  5  5  5  5  5  5
CENTRE ASSIGNMENTS    5  5  5  5  5  5  5  5  5  5  5  5  5  5  5  5  5  5  5  5
CENTRE ASSIGNMENTS    5  5  5  5  5  5  5  5  5  5  5  5  5  5  5  5  5  6  6  6
CENTRE ASSIGNMENTS    6  6  6  6  6  6  6  6  6  6  6  6  6  6  6  6  6  6  6  6
CENTRE ASSIGNMENTS    6  6  6  6  6  6  6  6  6  6  6  6  6  6  6  6  6  6  6  6
CENTRE ASSIGNMENTS    6  6  6  6  6  6  6  6  6  6
TYPE ASSIGNMENTS      1  1  1  1  1  1  1  1  1  2  2  2  3  3  3  4  4  4  1  2
TYPE ASSIGNMENTS      3  4  1  2  3  4  1  2  3  4  5  6  7  8  9 10  1  1  1  1
TYPE ASSIGNMENTS      1  1  2  3  4  1  1  1  1  1  1  2  3  4  1  1  1  1  1  1
TYPE ASSIGNMENTS      2  3  4  1  1  1  1  1  1  1  1  1  1  1  1  1  1  1  1  2
TYPE ASSIGNMENTS      3  4  2  2  2  3  3  3  4  4  4  2  2  2  3  3  3  4  4  4
TYPE ASSIGNMENTS      2  2  2  3  3  3  4  4  4  2  3  4  2  3  4  2  3  4  2  3
TYPE ASSIGNMENTS      4  5  5  5  5  6  6  6  6  7  7  7  7  8  8  8  8  9  9  9
TYPE ASSIGNMENTS      9 10 10 10 10  5  6  7  8  9 10  5  6  7  8  9 10  1  1  1
TYPE ASSIGNMENTS      1  1  1  1  1  1  1  1  1  1  1  2  3  4  2  2  2  2  2  3
TYPE ASSIGNMENTS      3  3  3  3  4  4  4  4  4  2  2  3  3  4  4  2  3  4  2  3
TYPE ASSIGNMENTS      4  2  3  4  5  6  7  8  9 10
EXPONENTS  0.4563240D+04 0.6820240D+03 0.1549730D+03 0.4445530D+02 0.1302900D+02
EXPONENTS  0.1827730D+01 0.2096420D+02 0.4803310D+01 0.1459330D+01 0.2096420D+02
EXPONENTS  0.4803310D+01 0.1459330D+01 0.2096420D+02 0.4803310D+01 0.1459330D+01
EXPONENTS  0.2096420D+02 0.4803310D+01 0.1459330D+01 0.4834560D+00 0.4834560D+00
EXPONENTS  0.4834560D+00 0.4834560D+00 0.1455850D+00 0.1455850D+00 0.1455850D+00
EXPONENTS  0.1455850D+00 0.4380000D-01 0.4380000D-01 0.4380000D-01 0.4380000D-01
EXPONENTS  0.6260000D+00 0.6260000D+00 0.6260000D+00 0.6260000D+00 0.6260000D+00
EXPONENTS  0.6260000D+00 0.3386500D+02 0.5094790D+01 0.1158790D+01 0.3258400D+00
EXPONENTS  0.1027410D+00 0.3600000D-01 0.7500000D+00 0.7500000D+00 0.7500000D+00
EXPONENTS  0.3386500D+02 0.5094790D+01 0.1158790D+01 0.3258400D+00 0.1027410D+00
EXPONENTS  0.3600000D-01 0.7500000D+00 0.7500000D+00 0.7500000D+00 0.3386500D+02
EXPONENTS  0.5094790D+01 0.1158790D+01 0.3258400D+00 0.1027410D+00 0.3600000D-01
EXPONENTS  0.7500000D+00 0.7500000D+00 0.7500000D+00 0.4397000D+06 0.6603000D+05
EXPONENTS  0.1514000D+05 0.4317000D+04 0.1414000D+04 0.5239000D+03 0.5239000D+03
EXPONENTS  0.2077000D+03 0.8654000D+02 0.3052000D+02 0.1298000D+02 0.4412000D+01
EXPONENTS  0.1862000D+01 0.3932000D+00 0.1400000D+00 0.3500000D-01 0.3500000D-01
EXPONENTS  0.3500000D-01 0.3500000D-01 0.2957000D+04 0.7003000D+03 0.2246000D+03
EXPONENTS  0.2957000D+04 0.7003000D+03 0.2246000D+03 0.2957000D+04 0.7003000D+03
EXPONENTS  0.2246000D+03 0.8259000D+02 0.3319000D+02 0.1420000D+02 0.8259000D+02
EXPONENTS  0.3319000D+02 0.1420000D+02 0.8259000D+02 0.3319000D+02 0.1420000D+02
EXPONENTS  0.1420000D+02 0.7438000D+01 0.3526000D+01 0.1420000D+02 0.7438000D+01
EXPONENTS  0.3526000D+01 0.1420000D+02 0.7438000D+01 0.3526000D+01 0.1595000D+01
EXPONENTS  0.1595000D+01 0.1595000D+01 0.8462000D+00 0.8462000D+00 0.8462000D+00
EXPONENTS  0.3186000D+00 0.3186000D+00 0.3186000D+00 0.1096000D+00 0.1096000D+00
EXPONENTS  0.1096000D+00 0.1348000D+03 0.3639000D+02 0.1216000D+02 0.4341000D+01
EXPONENTS  0.1348000D+03 0.3639000D+02 0.1216000D+02 0.4341000D+01 0.1348000D+03
EXPONENTS  0.3639000D+02 0.1216000D+02 0.4341000D+01 0.1348000D+03 0.3639000D+02
EXPONENTS  0.1216000D+02 0.4341000D+01 0.1348000D+03 0.3639000D+02 0.1216000D+02
EXPONENTS  0.4341000D+01 0.1348000D+03 0.3639000D+02 0.1216000D+02 0.4341000D+01
EXPONENTS  0.1535000D+01 0.1535000D+01 0.1535000D+01 0.1535000D+01 0.1535000D+01
EXPONENTS  0.1535000D+01 0.4510000D+00 0.4510000D+00 0.4510000D+00 0.4510000D+00
EXPONENTS  0.4510000D+00 0.4510000D+00 0.1058190D+06 0.1587200D+05 0.3619650D+04
EXPONENTS  0.1030800D+04 0.3399080D+03 0.1245380D+03 0.1245380D+03 0.4951350D+02
EXPONENTS  0.2080560D+02 0.6583460D+01 0.2564680D+01 0.5597630D+00 0.1832730D+00
EXPONENTS  0.4830000D-01 0.4830000D-01 0.4830000D-01 0.4830000D-01 0.5897760D+03
EXPONENTS  0.1398490D+03 0.4514130D+02 0.1687330D+02 0.2771520D+01 0.5897760D+03
EXPONENTS  0.1398490D+03 0.4514130D+02 0.1687330D+02 0.2771520D+01 0.5897760D+03
EXPONENTS  0.1398490D+03 0.4514130D+02 0.1687330D+02 0.2771520D+01 0.6741100D+01
EXPONENTS  0.2771520D+01 0.6741100D+01 0.2771520D+01 0.6741100D+01 0.2771520D+01
EXPONENTS  0.1023870D+01 0.1023870D+01 0.1023870D+01 0.3813680D+00 0.3813680D+00
EXPONENTS  0.3813680D+00 0.1094370D+00 0.1094370D+00 0.1094370D+00 0.7500000D+00
EXPONENTS  0.7500000D+00 0.7500000D+00 0.7500000D+00 0.7500000D+00 0.7500000D+00
MO    1     MO 0.0        OCC NO =    2.0000000  ORB. ENERGY = -482.655128
 -0.23434152D-07 -0.43624848D-07 -0.71762465D-07 -0.96364947D-07 -0.90731230D-07
 -0.74559892D-08  0.73678194D-07  0.19577676D-06 -0.26392075D-09 -0.45724132D-09
 -0.42786522D-09 -0.33139815D-09 -0.85259107D-08 -0.79781517D-08 -0.61793869D-08
  0.60694458D-06  0.56795059D-06  0.43989968D-06 -0.15513308D-05  0.63795903D-09
  0.17941135D-07 -0.12689351D-05  0.42744848D-05  0.61222347D-10  0.22038389D-07
 -0.15359612D-05  0.54572383D-05  0.57390672D-09  0.47203547D-07 -0.32982955D-05
 -0.39485832D-06 -0.39520787D-06  0.79006619D-06  0.18751225D-09 -0.93347853D-10
 -0.34036286D-07 -0.12862734D-06 -0.23202537D-06 -0.34206656D-06 -0.22612290D-06
 -0.16569919D-05 -0.54186188D-06  0.10994591D-06  0.16833626D-06  0.15899613D-06
 -0.12862825D-06 -0.23202702D-06 -0.34206898D-06 -0.22592139D-06 -0.16571339D-05
 -0.54197198D-06  0.93183683D-07 -0.18282842D-06  0.15344996D-06 -0.12863631D-06
 -0.23204156D-06 -0.34209042D-06 -0.22639382D-06 -0.16566555D-05 -0.54160351D-06
 -0.20245689D-06  0.74033881D-08  0.15778836D-06  0.38584362D+01  0.71955614D+01
  0.12109068D+02  0.19065835D+02  0.25289926D+02  0.16475088D+02  0.96359554D+01
  0.16238832D+02  0.34607835D+01  0.81727423D-01 -0.11315947D-01  0.24909766D-02
 -0.64650485D-03  0.73882596D-04 -0.24944473D-04 -0.39118831D-05 -0.36180170D-10
  0.63184650D-08 -0.43918105D-06 -0.80536335D-07 -0.10771160D-06 -0.12441521D-06
 -0.22025823D-04 -0.29457967D-04 -0.34026225D-04  0.15350375D-02  0.20530032D-02
  0.23713771D-02 -0.53608831D-08 -0.25285482D-08 -0.44686748D-09 -0.25260895D-05
 -0.11914714D-05 -0.21056741D-06  0.17598792D-03  0.83007581D-04  0.14669837D-04
 -0.14162683D-09 -0.29586518D-09 -0.18853231D-09  0.67305273D-07  0.14060391D-06
  0.89596150D-07 -0.46835389D-05 -0.97841353D-05 -0.62346832D-05  0.71782583D-09
 -0.16577936D-06  0.11529006D-04 -0.51507221D-09  0.12196769D-06 -0.84824576D-05
  0.87213037D-10 -0.58862389D-07  0.40968265D-05  0.13771771D-09  0.50686336D-07
 -0.35319801D-05  0.34720209D-04  0.25881476D-04  0.11997257D-04  0.28052488D-05
  0.34701331D-04  0.25867404D-04  0.11990734D-04  0.28037236D-05 -0.69421540D-04
 -0.51748880D-04 -0.23987991D-04 -0.56089725D-05 -0.20984085D-09 -0.15642161D-09
 -0.72508625D-10 -0.16954270D-10 -0.22720761D-08 -0.16936731D-08 -0.78509553D-09
 -0.18357432D-09  0.29924339D-05  0.22306492D-05  0.10340087D-05  0.24177625D-06
 -0.40022743D-05 -0.40000181D-05  0.80022924D-05  0.46352733D-10 -0.39253401D-09
 -0.34475037D-06  0.10903806D-05  0.10897603D-05 -0.21801409D-05 -0.13438244D-10
  0.15725818D-09  0.93908359D-07  0.16665002D-06  0.31120328D-06  0.52975445D-06
  0.82120817D-06  0.11058416D-05  0.83815884D-06 -0.60640994D-06 -0.14125801D-05
 -0.34456154D-06  0.22511607D-05 -0.21371540D-05  0.15970432D-05 -0.20300144D-05
  0.63236488D-05  0.40803043D-09  0.13324874D-07 -0.93629730D-06 -0.34697053D-08
 -0.44431806D-08 -0.47541556D-08 -0.37829435D-08 -0.87066470D-09 -0.13329199D-06
 -0.17068896D-06 -0.18263536D-06 -0.14532533D-06 -0.33447403D-07  0.93549935D-05
  0.11979670D-04  0.12818119D-04  0.10199544D-04  0.23474797D-05  0.30556944D-08
 -0.63497403D-09  0.11685816D-06 -0.24283155D-07 -0.82018772D-05  0.17043521D-05
  0.80191262D-09  0.31434872D-07 -0.22059035D-05 -0.42650453D-09 -0.17831896D-07
  0.12507420D-05  0.22177363D-09  0.12990155D-07 -0.90923877D-06 -0.40756760D-06
 -0.40723000D-06  0.81479761D-06  0.27073020D-11 -0.10690253D-08 -0.34784441D-07
MO    2     MO 0.0        OCC NO =    2.0000000  ORB. ENERGY = -101.282383
 -0.31030810D-06 -0.57766733D-06 -0.95025733D-06 -0.12760361D-05 -0.12014361D-05
 -0.98730002D-07  0.93295818D-06  0.24790446D-05 -0.33419253D-08 -0.30075063D-08
 -0.28142849D-08 -0.21797724D-08 -0.17609057D-06 -0.16477739D-06 -0.12762646D-06
  0.12327581D-04  0.11535578D-04  0.89347512D-05 -0.88950401D-05  0.81503180D-08
  0.24617198D-06 -0.17300252D-04  0.23674864D-04 -0.35165021D-08 -0.31635831D-06
  0.22105568D-04 -0.12365452D-04  0.25244698D-08  0.14043926D-06 -0.98321759D-05
 -0.83872505D-06 -0.84111731D-06  0.16798424D-05  0.36760724D-09 -0.25016987D-08
 -0.71650609D-07  0.24913248D-05  0.44939946D-05  0.66253326D-05 -0.22980745D-04
  0.26388706D-05 -0.47036957D-05 -0.51900971D-05 -0.78967230D-05 -0.12296436D-04
  0.24910235D-05  0.44934510D-05  0.66245311D-05 -0.22979920D-04  0.26399686D-05
 -0.47051020D-05 -0.43918563D-05  0.87028785D-05 -0.12056495D-04  0.24924475D-05
  0.44960198D-05  0.66283182D-05 -0.22983650D-04  0.26350479D-05 -0.46988762D-05
  0.95986035D-05 -0.28599062D-06 -0.12193782D-04  0.84792344D-07  0.15812845D-06
  0.26610684D-06  0.41898758D-06  0.55576717D-06  0.36205377D-06 -0.29257396D-05
 -0.49305536D-05 -0.10507885D-05  0.17806884D-04 -0.25124671D-04  0.23830572D-04
 -0.16389290D-04  0.82524008D-05 -0.60075668D-05 -0.32419120D-05 -0.48197356D-09
  0.10654338D-08 -0.64301647D-07 -0.22488856D-09 -0.30077240D-09 -0.34741533D-09
  0.11312158D-06  0.15129204D-06  0.17475398D-06 -0.78655113D-05 -0.10519560D-04
 -0.12150904D-04  0.86437918D-09  0.40769858D-09  0.72052112D-10 -0.34317988D-06
 -0.16186640D-06 -0.28606468D-07  0.23857016D-04  0.11252552D-04  0.19886508D-05
 -0.10662777D-09 -0.22275048D-09 -0.14194189D-09  0.42619687D-07  0.89034552D-07
  0.56734929D-07 -0.29628492D-05 -0.61895329D-05 -0.39441172D-05  0.40986326D-09
 -0.16369646D-06  0.11380116D-04 -0.30906532D-09  0.13662446D-06 -0.94990940D-05
  0.60566895D-10 -0.65367662D-07  0.45470086D-05 -0.45525802D-09 -0.29197961D-07
  0.20435877D-05 -0.10635463D-03 -0.79279903D-04 -0.36749889D-04 -0.85930129D-05
 -0.10628809D-03 -0.79230301D-04 -0.36726896D-04 -0.85876366D-05  0.21264272D-03
  0.15851020D-03  0.73476786D-04  0.17180650D-04  0.10914616D-09  0.81360795D-10
  0.37714479D-10  0.88185572D-11 -0.62990011D-07 -0.46954627D-07 -0.21765634D-07
 -0.50893316D-08 -0.91429015D-05 -0.68153906D-05 -0.31592477D-05 -0.73870852D-06
  0.86830668D-05  0.86776499D-05 -0.17360717D-04 -0.13263111D-10  0.50518675D-08
  0.74648612D-06 -0.27548263D-05 -0.27531238D-05  0.55079501D-05  0.10155830D-10
 -0.15120676D-08 -0.23687323D-06  0.12702093D+01  0.23719967D+01  0.40377975D+01
  0.62592627D+01  0.84287435D+01  0.63884610D+01  0.23318216D+01  0.54317792D+01
  0.13249388D+01  0.43874148D-01 -0.56664983D-02  0.65102036D-03 -0.17988190D-03
  0.51151222D-04  0.27797248D-08  0.14924576D-06 -0.10450112D-04  0.53199422D-07
  0.68125279D-07  0.72893318D-07  0.58002161D-07  0.13349508D-07  0.22891354D-05
  0.29313850D-05  0.31365505D-05  0.24957940D-05  0.57442037D-06 -0.16064463D-03
 -0.20571577D-03 -0.22011367D-03 -0.17514731D-03 -0.40311092D-04 -0.99722530D-08
  0.20722366D-08 -0.67059420D-06  0.13934964D-06  0.46918276D-04 -0.97496293D-05
 -0.55786489D-08 -0.27563767D-06  0.19318269D-04  0.34231276D-08  0.16774295D-06
 -0.11751809D-04 -0.38830939D-08 -0.19431610D-06  0.13610961D-04  0.54647111D-05
  0.54615164D-05 -0.10926227D-04 -0.16167894D-09  0.10506618D-07  0.46769290D-06
MO    3     MO 0.0        OCC NO =    2.0000000  ORB. ENERGY =  -62.308051
 -0.19195028D-06 -0.35733326D-06 -0.58780985D-06 -0.78932998D-06 -0.74318393D-06
 -0.61072371D-07  0.81012677D-06  0.21526585D-05 -0.29019341D-08 -0.62213120D-08
 -0.58216152D-08 -0.45090660D-08 -0.11019353D-06 -0.10311399D-06 -0.79865773D-07
  0.78542170D-05  0.73496120D-05  0.56925586D-05 -0.21192522D-04  0.87640178D-08
  0.24547026D-06 -0.17363337D-04  0.59621830D-04  0.82324373D-09  0.30630531D-06
 -0.21347383D-04  0.77892844D-04  0.81348227D-08  0.66909718D-06 -0.46752399D-04
 -0.51247607D-05 -0.51297178D-05  0.10254479D-04  0.25814448D-08 -0.10281213D-08
 -0.44183829D-06 -0.18464336D-05 -0.33307028D-05 -0.49103339D-05 -0.30028351D-05
 -0.23608248D-04 -0.78009853D-05  0.14571034D-05  0.22317935D-05  0.20307814D-05
 -0.18464502D-05 -0.33307327D-05 -0.49103780D-05 -0.30000429D-05 -0.23610237D-04
 -0.78025638D-05  0.12350183D-05 -0.24218102D-05  0.19569217D-05 -0.18465522D-05
 -0.33309167D-05 -0.49106491D-05 -0.30065567D-05 -0.23603531D-04 -0.77972829D-05
 -0.26828144D-05  0.99152258D-07  0.20155495D-05 -0.12742143D+01 -0.23762703D+01
 -0.39989123D+01 -0.62963229D+01 -0.83517739D+01 -0.54407519D+01 -0.53840069D+01
 -0.90733073D+01 -0.19336829D+01  0.58199891D+01  0.24290758D+01  0.10321562D+00
 -0.11014215D-01  0.10680847D-02 -0.35613210D-03 -0.55291683D-04 -0.51444675D-09
  0.90115817D-07 -0.62637446D-05 -0.18338009D-05 -0.24525779D-05 -0.28329167D-05
 -0.53861784D-03 -0.72036294D-03 -0.83207477D-03  0.37539646D-01  0.50206599D-01
  0.57992495D-01 -0.25096121D-05 -0.11836996D-05 -0.20919390D-06 -0.74831349D-03
 -0.35295430D-03 -0.62377217D-04  0.52153806D-01  0.24599196D-01  0.43473882D-02
 -0.93736505D-08 -0.19582001D-07 -0.12478116D-07 -0.14229022D-05 -0.29725104D-05
 -0.18941542D-05  0.99266086D-04  0.20737157D-03  0.13214209D-03  0.15208798D-07
 -0.67941480D-06  0.47014260D-04 -0.88528460D-08  0.11726368D-05 -0.81481251D-04
  0.13711908D-08 -0.77203214D-06  0.53729880D-04  0.19180182D-08  0.70776274D-06
 -0.49319101D-04 -0.23018707D-02 -0.17158829D-02 -0.79539080D-03 -0.18598161D-03
 -0.23004486D-02 -0.17148228D-02 -0.79489939D-03 -0.18586670D-03  0.46023193D-02
  0.34307056D-02  0.15902902D-02  0.37184831D-03  0.67737778D-07  0.50493753D-07
  0.23406182D-07  0.54729315D-08 -0.12025807D-05 -0.89643940D-06 -0.41554098D-06
 -0.97163531D-07 -0.19798625D-03 -0.14758484D-03 -0.68412376D-04 -0.15996468D-04
 -0.32455745D-04 -0.32438141D-04  0.64893886D-04 -0.24862289D-09  0.40493753D-08
 -0.27978389D-05  0.13838309D-04  0.13830458D-04 -0.27668767D-04 -0.13382211D-09
  0.16024145D-08  0.11919320D-05  0.50212204D-06  0.93766580D-06  0.15961677D-05
  0.24743274D-05  0.33319374D-05  0.25254004D-05 -0.51394855D-05 -0.11971992D-04
 -0.29202506D-05  0.27180355D-04 -0.27937092D-04  0.22310596D-04 -0.28823268D-04
  0.89665885D-04  0.57906302D-08  0.18923943D-06 -0.13297173D-04 -0.39819685D-07
 -0.50991666D-07 -0.54560536D-07 -0.43414528D-07 -0.99920861D-08 -0.15388799D-05
 -0.19706346D-05 -0.21085579D-05 -0.16778069D-05 -0.38615625D-06  0.10800265D-03
  0.13830433D-03  0.14798415D-03  0.11775292D-03  0.27101464D-04  0.32210079D-07
 -0.66932623D-08  0.12389310D-05 -0.25745016D-06 -0.86954658D-04  0.18069199D-04
  0.10254965D-07  0.40481230D-06 -0.28406165D-04 -0.58409650D-08 -0.24582308D-06
  0.17241528D-04  0.30945921D-08  0.18246328D-06 -0.12771036D-04 -0.56507169D-05
 -0.56460313D-05  0.11296748D-04  0.36625118D-10 -0.14799892D-07 -0.48227355D-06
MO    4     MO 0.0        OCC NO =    2.0000000  ORB. ENERGY =  -56.127498
 -0.20167548D-06 -0.37543763D-06 -0.61759137D-06 -0.82932156D-06 -0.78083751D-06
 -0.64166616D-07 -0.65780568D-06 -0.17479129D-05  0.23563087D-08 -0.10050194D-07
 -0.94045054D-08 -0.72841530D-08 -0.23014220D-05 -0.21535640D-05 -0.16680185D-05
  0.16040626D-03  0.15010074D-03  0.11625882D-03 -0.51998071D-04  0.94400085D-09
  0.85619446D-06 -0.59588111D-04  0.62190365D-04  0.28313362D-08  0.38714410D-06
 -0.26994545D-04 -0.16005243D-04 -0.52206114D-08 -0.53007164D-06  0.37015308D-04
 -0.47167150D-04 -0.47132883D-04  0.94300033D-04 -0.12883269D-08 -0.24601587D-07
 -0.40565433D-05  0.88104660D-05  0.15892824D-04  0.23430211D-04 -0.33452893D-04
 -0.81695044D-05 -0.11214199D-04  0.22123341D-05  0.25346384D-05  0.63832339D-04
  0.88100869D-05  0.15892140D-04  0.23429203D-04 -0.33455987D-04 -0.81683391D-05
 -0.11214341D-04  0.18706450D-05 -0.45578924D-05  0.63733203D-04  0.88110128D-05
  0.15893810D-04  0.23431665D-04 -0.33448656D-04 -0.81724712D-05 -0.11213904D-04
 -0.41050738D-05 -0.71769113D-06  0.63780397D-04  0.59344706D-03  0.11067138D-02
  0.18624361D-02  0.29324221D-02  0.38897190D-02  0.25339522D-02  0.25383823D-02
  0.42777663D-02  0.91166793D-03 -0.28567832D-02 -0.10481976D-02 -0.10754873D-03
  0.51293314D-04 -0.64165283D-05 -0.15006331D-07  0.78942597D-04 -0.12135079D-09
 -0.48919768D-07  0.34104635D-05 -0.61262894D-02 -0.81934751D-02 -0.94640959D-02
 -0.12579254D+01 -0.16823855D+01 -0.19432850D+01  0.87701552D+02  0.11729457D+03
  0.13548428D+03 -0.78773964D-02 -0.37155029D-02 -0.65663665D-03 -0.16174871D+01
 -0.76291427D+00 -0.13482898D+00  0.11276991D+03  0.53189772D+02  0.94001687D+01
 -0.70076015D-05 -0.14639213D-04 -0.93284536D-05 -0.14385532D-02 -0.30052061D-02
 -0.19149886D-02  0.10029484D+00  0.20952069D+00  0.13351155D+00  0.26477958D-05
  0.54252291D-03 -0.37824483D-01 -0.75283918D-06 -0.15373890D-03  0.10718722D-01
  0.80197202D-07  0.16284867D-04 -0.11354150D-02 -0.76147061D-08 -0.16698988D-05
  0.11641745D-03 -0.17922074D-02 -0.13359647D-02 -0.61928122D-03 -0.14480293D-03
 -0.17910930D-02 -0.13351340D-02 -0.61889613D-03 -0.14471288D-03  0.35833004D-02
  0.26710987D-02  0.12381773D-02  0.28951581D-03  0.87408532D-09  0.65156918D-09
  0.30203235D-09  0.70622468D-10 -0.33325150D-06 -0.24841557D-06 -0.11515207D-06
 -0.26925339D-07 -0.15432340D-03 -0.11503725D-03 -0.53325068D-04 -0.12468691D-04
 -0.52173401D-04 -0.52141614D-04  0.10431501D-03  0.85104019D-09 -0.41527961D-07
 -0.44821542D-05  0.18966611D-04  0.18955002D-04 -0.37921613D-04 -0.24862295D-09
  0.12745518D-07  0.16301633D-05 -0.15754552D-06 -0.29420148D-06 -0.50081266D-06
 -0.77634354D-06 -0.10454267D-05 -0.79236816D-06  0.17467278D-05  0.40688532D-05
  0.99248906D-06 -0.95315820D-05  0.10038051D-04 -0.81935200D-05  0.60302872D-05
 -0.46420797D-04 -0.38299136D-08 -0.10243378D-06  0.72119197D-05  0.18827342D-07
  0.24109622D-07  0.25797037D-07  0.20527038D-07  0.47244077D-08  0.51350118D-06
  0.65757127D-06  0.70359421D-06  0.55985906D-06  0.12885456D-06 -0.36125411D-04
 -0.46260911D-04 -0.49498678D-04 -0.39386742D-04 -0.90650697D-05 -0.15177644D-07
  0.31539181D-08 -0.41366015D-06  0.85958681D-07  0.29101747D-04 -0.60473501D-05
 -0.46163452D-08 -0.12319255D-06  0.86682974D-05  0.19464941D-08  0.41213937D-07
 -0.29064121D-05 -0.33160599D-09 -0.74171466D-08  0.52088583D-06 -0.33097241D-05
 -0.33072967D-05  0.66170208D-05 -0.14562158D-10 -0.15603605D-08 -0.28450456D-06
MO    5     MO 0.0        OCC NO =    2.0000000  ORB. ENERGY =  -56.124949
 -0.30023179D-10 -0.55890935D-10 -0.91940062D-10 -0.12346007D-09 -0.11624231D-09
 -0.95524047D-11  0.12591553D-09  0.33458114D-09 -0.45103875D-12 -0.30373107D-04
 -0.28421744D-04 -0.22013740D-04 -0.16309308D-04 -0.15261494D-04 -0.11820617D-04
 -0.24137651D-06 -0.22586894D-06 -0.17494422D-06  0.65073269D-09  0.33134328D-04
  0.17792097D-04  0.26078066D-06 -0.64634360D-09  0.95478840D-05  0.51278695D-05
  0.75453453D-07  0.15763335D-07 -0.54890444D-05 -0.29477998D-05 -0.35618136D-07
  0.21713537D-04 -0.21575026D-04 -0.13851131D-06 -0.31860908D-04 -0.17496367D-04
 -0.97753502D-05  0.14635102D-05  0.26399637D-05  0.38920023D-05  0.23049252D-04
  0.99585669D-05 -0.28438894D-04  0.13636627D-04  0.30430312D-04 -0.36090144D-04
 -0.29266041D-07 -0.52791763D-07 -0.77828974D-07 -0.45081621D-06 -0.20150589D-06
  0.55681813D-06 -0.89305598D-05 -0.38901168D-05  0.66006627D-06 -0.14349082D-05
 -0.25883697D-05 -0.38159393D-05 -0.22591738D-04 -0.97698475D-05  0.27869083D-04
  0.31611079D-04 -0.70372680D-05  0.35708851D-04  0.97569741D-08  0.18195689D-07
  0.30620660D-07  0.48212501D-07  0.63951597D-07  0.41661182D-07  0.43080281D-07
  0.72600321D-07  0.15472417D-07 -0.55546500D-07 -0.52788111D-08 -0.13426951D-07
  0.95413310D-08 -0.65654128D-08  0.63224834D-08  0.11466684D-07 -0.72250617D-05
 -0.38800223D-05 -0.54735277D-07  0.77275494D+02  0.10335046D+03  0.11937776D+03
  0.41496590D+02  0.55498729D+02  0.64105314D+02  0.60059400D+00  0.80325164D+00
  0.92781762D+00  0.99361632D+02  0.46865539D+02  0.82824941D+01  0.53356746D+02
  0.25166582D+02  0.44476618D+01  0.77225001D+00  0.36424435D+00  0.64372495D-01
  0.88131737D-01  0.18411139D+00  0.11732014D+00  0.47326343D-01  0.98866981D-01
  0.63000386D-01  0.68496899D-03  0.14309328D-02  0.91182431D-03 -0.32803487D-01
 -0.17615325D-01 -0.25494940D-03  0.90875726D-02  0.48799866D-02  0.70627792D-04
 -0.89945725D-03 -0.48300503D-03 -0.69911098D-05  0.90775133D-04  0.48746025D-04
  0.70750662D-06 -0.71705750D-05 -0.53451598D-05 -0.24777279D-05 -0.57935272D-06
 -0.54562744D-04 -0.40672692D-04 -0.18853667D-04 -0.44084434D-05  0.61733319D-04
  0.46017852D-04  0.21331395D-04  0.49877961D-05 -0.10423473D-03 -0.77699670D-04
 -0.36017379D-04 -0.84217342D-05  0.79406631D-02  0.59192063D-02  0.27438250D-02
  0.64157264D-03  0.42633234D-02  0.31780080D-02  0.14731532D-02  0.34445885D-03
  0.10579362D-05 -0.60070042D-06 -0.45723579D-06 -0.71920947D-06 -0.58140352D-04
 -0.31232013D-04 -0.28594654D-06  0.28347881D-06  0.24677260D-08  0.41995037D-06
  0.12611932D-06  0.72444102D-07 -0.11680912D-10 -0.21813007D-10 -0.37131798D-10
 -0.57560509D-10 -0.77511169D-10 -0.58748623D-10  0.12909053D-09  0.30070535D-09
  0.73349112D-10 -0.71319807D-09  0.77727407D-09 -0.91814040D-09  0.21312536D-08
 -0.14139513D-07 -0.83733402D-06 -0.45019815D-06 -0.40810339D-08 -0.37696353D-04
 -0.48272603D-04 -0.51651168D-04 -0.41099506D-04 -0.94592714D-05 -0.20250303D-04
 -0.25931815D-04 -0.27746764D-04 -0.22078461D-04 -0.50814760D-05 -0.31895745D-06
 -0.40844552D-06 -0.43703233D-06 -0.34775231D-06 -0.80037056D-07  0.30167874D-04
 -0.62688917D-05  0.16206039D-04 -0.33676188D-05  0.25511370D-06 -0.53012690D-07
  0.96595922D-05  0.51891157D-05  0.81978024D-07 -0.51120048D-05 -0.27462658D-05
 -0.43805731D-07  0.22352009D-05  0.12010201D-05  0.20017573D-07 -0.28548856D-06
  0.31128849D-06 -0.25799928D-07  0.46828651D-06 -0.30441615D-05 -0.16296671D-05
MO    6     MO 0.0        OCC NO =    2.0000000  ORB. ENERGY =  -56.124949
 -0.18956540D-11 -0.35289358D-11 -0.58050663D-11 -0.77952297D-11 -0.73395026D-11
 -0.60313579D-12 -0.21033323D-10 -0.55889478D-10  0.75342920D-13  0.16311631D-04
  0.15263668D-04  0.11822301D-04 -0.30367966D-04 -0.28416934D-04 -0.22010013D-04
 -0.42830411D-06 -0.40078712D-06 -0.31042512D-06 -0.12086858D-08 -0.17794510D-04
  0.33128789D-04  0.47005621D-06  0.18578491D-08 -0.51279271D-05  0.95486746D-05
  0.13512974D-06 -0.14346134D-07  0.29479106D-05 -0.54886000D-05 -0.85333292D-07
 -0.16056226D-04  0.16295037D-04 -0.23881122D-06 -0.43549747D-04  0.85269674D-05
 -0.16583314D-04  0.81247103D-06  0.14655818D-05  0.21606539D-05  0.12779813D-04
  0.55313497D-05 -0.15769403D-04  0.16908224D-04  0.10867625D-04 -0.20099047D-04
 -0.16739089D-05 -0.30194929D-05 -0.44515284D-05 -0.26352469D-04 -0.11389361D-04
  0.32517000D-04 -0.16886646D-04  0.32540119D-04  0.42227353D-04  0.86191673D-06
  0.15547748D-05  0.22921479D-05  0.13565585D-04  0.58686315D-05 -0.16735105D-04
 -0.19526054D-04 -0.70924688D-05 -0.21605147D-04 -0.84034153D-08 -0.15671450D-07
 -0.26372738D-07 -0.41524110D-07 -0.55079764D-07 -0.35881638D-07 -0.37271087D-07
 -0.62810476D-07 -0.13386027D-07  0.48406100D-07  0.36888353D-08  0.12735632D-07
 -0.91155488D-08  0.65402015D-08 -0.64926610D-08 -0.11465585D-07  0.38802810D-05
 -0.72247227D-05 -0.10478030D-06 -0.41500936D+02 -0.55504541D+02 -0.64112027D+02
  0.77267588D+02  0.10333989D+03  0.11936554D+03  0.11053694D+01  0.14783528D+01
  0.17076115D+01 -0.53362334D+02 -0.25169218D+02 -0.44481276D+01  0.99351466D+02
  0.46860744D+02  0.82816467D+01  0.14212955D+01  0.67037726D+00  0.11847502D+00
 -0.47331300D-01 -0.98877335D-01 -0.63006984D-01  0.88122722D-01  0.18409255D+00
  0.11730814D+00  0.12606616D-02  0.26335819D-02  0.16781809D-02  0.17617172D-01
 -0.32800140D-01 -0.46923517D-03 -0.48804987D-02  0.90866496D-02  0.12999477D-03
  0.48305560D-03 -0.89936730D-03 -0.12866299D-04 -0.48751048D-04  0.90766484D-04
  0.12965007D-05  0.52383057D-05  0.39047888D-05  0.18100496D-05  0.42323337D-06
 -0.11878454D-03 -0.88545531D-04 -0.41044935D-04 -0.95972984D-05  0.11354624D-03
  0.84640742D-04  0.39234885D-04  0.91740651D-05  0.74176022D-04  0.55293012D-04
  0.25630860D-04  0.59931148D-05 -0.42642856D-02 -0.31787253D-02 -0.14734857D-02
 -0.34453659D-03  0.79379326D-02  0.59171710D-02  0.27428815D-02  0.64135203D-03
 -0.78260346D-06  0.16074842D-05 -0.82488070D-06 -0.25460474D-05  0.31182247D-04
 -0.58076992D-04  0.21173082D-06 -0.21167688D-06 -0.53945884D-10  0.57096606D-06
 -0.56299664D-07  0.11379160D-06  0.13746964D-10  0.25671166D-10  0.43699456D-10
  0.67741479D-10  0.91220897D-10  0.69139741D-10 -0.15206407D-09 -0.35422026D-09
 -0.86402659D-10  0.83862360D-09 -0.90955893D-09  0.10274153D-08 -0.22469234D-08
  0.13834797D-07  0.44978319D-06 -0.83835056D-06 -0.14359381D-07  0.20246435D-04
  0.25926861D-04  0.27741463D-04  0.22074243D-04  0.50805053D-05 -0.37710471D-04
 -0.48290682D-04 -0.51670512D-04 -0.41114898D-04 -0.94628140D-05 -0.51302737D-06
 -0.65696452D-06 -0.70294499D-06 -0.55934247D-06 -0.12873567D-06 -0.16202946D-04
  0.33669762D-05  0.30179170D-04 -0.62712388D-05  0.41071212D-06 -0.85346078D-07
 -0.51880976D-05  0.96632753D-05  0.13122178D-06  0.27456350D-05 -0.51141943D-05
 -0.69041084D-07 -0.12005548D-05  0.22366888D-05  0.29370635D-07  0.21095928D-06
 -0.16944057D-06 -0.41518707D-07  0.55097124D-06  0.16464446D-05 -0.30562674D-05
MO    7     MO 0.0        OCC NO =    2.0000000  ORB. ENERGY =  -10.084922
  0.43813108D+00  0.81562168D+00  0.13416900D+01  0.18016645D+01  0.16963350D+01
  0.13939914D+00  0.37093644D+00  0.98564757D+00 -0.13287218D-02  0.57774178D-06
  0.54062396D-06  0.41873415D-06  0.24757183D-04  0.23166623D-04  0.17943445D-04
 -0.17364187D-02 -0.16248601D-02 -0.12585170D-02  0.78671295D-02 -0.23428455D-06
 -0.13321307D-04  0.93409815D-03 -0.14067665D-02  0.36093950D-08 -0.56964318D-06
  0.39499179D-04 -0.71069327D-03  0.13474701D-07  0.10909348D-05 -0.76262522D-04
  0.78148310D-03  0.78115424D-03 -0.15626373D-02 -0.48881074D-07  0.56485254D-06
  0.67141068D-04  0.44260154D-04  0.79839003D-04  0.11770373D-03 -0.12332551D-02
  0.69459853D-03  0.59094821D-04 -0.12533779D-02 -0.19534277D-02  0.31474652D-03
  0.44253500D-04  0.79826999D-04  0.11768604D-03 -0.12332888D-02  0.69460887D-03
  0.59089108D-04 -0.10610359D-02  0.20547258D-02  0.37216563D-03  0.44270521D-04
  0.79857704D-04  0.11773130D-03 -0.12332006D-02  0.69458545D-03  0.59111420D-04
  0.23141636D-02 -0.11596246D-03  0.34149732D-03  0.39191136D-06  0.73087181D-06
  0.12299494D-05  0.19365662D-05  0.25687633D-05  0.16734174D-05  0.42827513D-05
  0.72174348D-05  0.15381635D-05 -0.22076143D-04  0.34070237D-04 -0.51839562D-04
  0.58352162D-04 -0.13890638D-03  0.19282654D-03 -0.23724518D-04 -0.15445149D-08
  0.81184622D-07 -0.56207935D-05 -0.22676643D-07 -0.30328392D-07 -0.35031633D-07
 -0.49787823D-05 -0.66587662D-05 -0.76913887D-05  0.34724209D-03  0.46441153D-03
  0.53643115D-03 -0.31084456D-07 -0.14661492D-07 -0.25911090D-08 -0.88156302D-05
 -0.41580362D-05 -0.73484507D-06  0.61486667D-03  0.29001192D-03  0.51253481D-04
  0.21340642D-08  0.44581615D-08  0.28408463D-08  0.83542519D-06  0.17452429D-05
  0.11121102D-05 -0.58270475D-04 -0.12172979D-03 -0.77569112D-04 -0.57922692D-08
 -0.29370821D-05  0.20485868D-03  0.12215137D-07  0.37437356D-05 -0.26110185D-03
 -0.68625396D-08 -0.19403232D-05  0.13530311D-03 -0.61826388D-08 -0.77224407D-06
  0.53856478D-04 -0.19036299D-02 -0.14190224D-02 -0.65778227D-03 -0.15380540D-03
 -0.19024643D-02 -0.14181535D-02 -0.65737950D-03 -0.15371122D-03  0.38060943D-02
  0.28371758D-02  0.13151618D-02  0.30751663D-03  0.20370285D-07  0.15184616D-07
  0.70387693D-08  0.16458345D-08 -0.11911475D-05 -0.88791677D-06 -0.41159035D-06
 -0.96239778D-07 -0.16369443D-03 -0.12202269D-03 -0.56563143D-04 -0.13225831D-04
  0.20206477D-03  0.20194136D-03 -0.40400612D-03 -0.22669427D-08  0.12435740D-06
  0.17375929D-04 -0.75695104D-04 -0.75649421D-04  0.15134453D-03  0.10193611D-08
 -0.44831382D-07 -0.65095351D-05 -0.22602138D-06 -0.42207372D-06 -0.71848673D-06
 -0.11137748D-05 -0.14998128D-05 -0.11367644D-05  0.74325544D-05  0.17313500D-04
  0.42231702D-05 -0.55185230D-04  0.65451567D-04 -0.37660704D-04  0.34412074D-05
  0.18798796D-03  0.10028314D-07  0.31514492D-06 -0.22135637D-04 -0.19509786D-06
 -0.24983534D-06 -0.26732114D-06 -0.21271091D-06 -0.48956555D-07 -0.21142288D-05
 -0.27074059D-05 -0.28968953D-05 -0.23050973D-05 -0.53053048D-06  0.15085898D-03
  0.19318463D-03  0.20670548D-03  0.16447824D-03  0.37855547D-04  0.98371153D-07
 -0.20441550D-07  0.42408364D-06 -0.88124685D-07 -0.31328785D-04  0.65101293D-05
  0.62230352D-07  0.10124683D-05 -0.71677080D-04 -0.35658119D-07 -0.10524965D-05
  0.73984661D-04  0.17103075D-07  0.48056970D-06 -0.33801518D-04 -0.10406987D-04