 Single Point Energy
GAUSSIAN             31 MOL ORBITALS    210 PRIMITIVES        6 NUCLEI   B3LYP
  C    1    (CENTRE  1)   0.00001917 -0.02391278  1.78006221  CHARGE =  6.0
  H    2    (CENTRE  2)  -1.08650587 -1.71289913  1.47967626  CHARGE =  1.0
  H    3    (CENTRE  3)  -0.92262053  1.76708946  1.52617970  CHARGE =  1.0
  H    4    (CENTRE  4)   2.00943718 -0.11483164  1.50174597  CHARGE =  1.0
  Br   5    (CENTRE  5)   0.00055558  0.04416524 -3.30215914  CHARGE = 35.0
  Cl   6    (CENTRE  6)  -0.00116889 -0.07892150  5.90515263  CHARGE = 17.0
CENTRE ASSIGNMENTS    1  1  1  1  1  1  1  1  1  1  1  1  1  1  1  1  1  1  1  1
CENTRE ASSIGNMENTS    1  1  1  1  1  1  1  1  1  1  1  1  1  1  1  1  2  2  2  2
CENTRE ASSIGNMENTS    2  2  2  2  2  3  3  3  3  3  3  3  3  3  4  4  4  4  4  4
CENTRE ASSIGNMENTS    4  4  4  5  5  5  5  5  5  5  5  5  5  5  5  5  5  5  5  5
CENTRE ASSIGNMENTS    5  5  5  5  5  5  5  5  5  5  5  5  5  5  5  5  5  5  5  5
CENTRE ASSIGNMENTS    5  5  5  5  5  5  5  5  5  5  5  5  5  5  5  5  5  5  5  5
CENTRE ASSIGNMENTS    5  5  5  5  5  5  5  5  5  5  5  5  5  5  5  5  5  5  5  5
CENTRE ASSIGNMENTS    5  5  5  5  5  5  5  5  5  5  5  5  5  5  5  5  5  6  6  6
CENTRE ASSIGNMENTS    6  6  6  6  6  6  6  6  6  6  6  6  6  6  6  6  6  6  6  6
CENTRE ASSIGNMENTS    6  6  6  6  6  6  6  6  6  6  6  6  6  6  6  6  6  6  6  6
CENTRE ASSIGNMENTS    6  6  6  6  6  6  6  6  6  6
TYPE ASSIGNMENTS      1  1  1  1  1  1  1  1  1  2  2  2  3  3  3  4  4  4  1  2
TYPE ASSIGNMENTS      3  4  1  2  3  4  1  2  3  4  5  6  7  8  9 10  1  1  1  1
TYPE ASSIGNMENTS      1  1  2  3  4  1  1  1  1  1  1  2  3  4  1  1  1  1  1  1
TYPE ASSIGNMENTS      2  3  4  1  1  1  1  1  1  1  1  1  1  1  1  1  1  1  1  2
TYPE ASSIGNMENTS      3  4  2  2  2  3  3  3  4  4  4  2  2  2  3  3  3  4  4  4
TYPE ASSIGNMENTS      2  2  2  3  3  3  4  4  4  2  3  4  2  3  4  2  3  4  2  3
TYPE ASSIGNMENTS      4  5  5  5  5  6  6  6  6  7  7  7  7  8  8  8  8  9  9  9
TYPE ASSIGNMENTS      9 10 10 10 10  5  6  7  8  9 10  5  6  7  8  9 10  1  1  1
TYPE ASSIGNMENTS      1  1  1  1  1  1  1  1  1  1  1  2  3  4  2  2  2  2  2  3
TYPE ASSIGNMENTS      3  3  3  3  4  4  4  4  4  2  2  3  3  4  4  2  3  4  2  3
TYPE ASSIGNMENTS      4  2  3  4  5  6  7  8  9 10
EXPONENTS  0.4563240D+04 0.6820240D+03 0.1549730D+03 0.4445530D+02 0.1302900D+02
EXPONENTS  0.1827730D+01 0.2096420D+02 0.4803310D+01 0.1459330D+01 0.2096420D+02
EXPONENTS  0.4803310D+01 0.1459330D+01 0.2096420D+02 0.4803310D+01 0.1459330D+01
EXPONENTS  0.2096420D+02 0.4803310D+01 0.1459330D+01 0.4834560D+00 0.4834560D+00
EXPONENTS  0.4834560D+00 0.4834560D+00 0.1455850D+00 0.1455850D+00 0.1455850D+00
EXPONENTS  0.1455850D+00 0.4380000D-01 0.4380000D-01 0.4380000D-01 0.4380000D-01
EXPONENTS  0.6260000D+00 0.6260000D+00 0.6260000D+00 0.6260000D+00 0.6260000D+00
EXPONENTS  0.6260000D+00 0.3386500D+02 0.5094790D+01 0.1158790D+01 0.3258400D+00
EXPONENTS  0.1027410D+00 0.3600000D-01 0.7500000D+00 0.7500000D+00 0.7500000D+00
EXPONENTS  0.3386500D+02 0.5094790D+01 0.1158790D+01 0.3258400D+00 0.1027410D+00
EXPONENTS  0.3600000D-01 0.7500000D+00 0.7500000D+00 0.7500000D+00 0.3386500D+02
EXPONENTS  0.5094790D+01 0.1158790D+01 0.3258400D+00 0.1027410D+00 0.3600000D-01
EXPONENTS  0.7500000D+00 0.7500000D+00 0.7500000D+00 0.4397000D+06 0.6603000D+05
EXPONENTS  0.1514000D+05 0.4317000D+04 0.1414000D+04 0.5239000D+03 0.5239000D+03
EXPONENTS  0.2077000D+03 0.8654000D+02 0.3052000D+02 0.1298000D+02 0.4412000D+01
EXPONENTS  0.1862000D+01 0.3932000D+00 0.1400000D+00 0.3500000D-01 0.3500000D-01
EXPONENTS  0.3500000D-01 0.3500000D-01 0.2957000D+04 0.7003000D+03 0.2246000D+03
EXPONENTS  0.2957000D+04 0.7003000D+03 0.2246000D+03 0.2957000D+04 0.7003000D+03
EXPONENTS  0.2246000D+03 0.8259000D+02 0.3319000D+02 0.1420000D+02 0.8259000D+02
EXPONENTS  0.3319000D+02 0.1420000D+02 0.8259000D+02 0.3319000D+02 0.1420000D+02
EXPONENTS  0.1420000D+02 0.7438000D+01 0.3526000D+01 0.1420000D+02 0.7438000D+01
EXPONENTS  0.3526000D+01 0.1420000D+02 0.7438000D+01 0.3526000D+01 0.1595000D+01
EXPONENTS  0.1595000D+01 0.1595000D+01 0.8462000D+00 0.8462000D+00 0.8462000D+00
EXPONENTS  0.3186000D+00 0.3186000D+00 0.3186000D+00 0.1096000D+00 0.1096000D+00
EXPONENTS  0.1096000D+00 0.1348000D+03 0.3639000D+02 0.1216000D+02 0.4341000D+01
EXPONENTS  0.1348000D+03 0.3639000D+02 0.1216000D+02 0.4341000D+01 0.1348000D+03
EXPONENTS  0.3639000D+02 0.1216000D+02 0.4341000D+01 0.1348000D+03 0.3639000D+02
EXPONENTS  0.1216000D+02 0.4341000D+01 0.1348000D+03 0.3639000D+02 0.1216000D+02
EXPONENTS  0.4341000D+01 0.1348000D+03 0.3639000D+02 0.1216000D+02 0.4341000D+01
EXPONENTS  0.1535000D+01 0.1535000D+01 0.1535000D+01 0.1535000D+01 0.1535000D+01
EXPONENTS  0.1535000D+01 0.4510000D+00 0.4510000D+00 0.4510000D+00 0.4510000D+00
EXPONENTS  0.4510000D+00 0.4510000D+00 0.1058190D+06 0.1587200D+05 0.3619650D+04
EXPONENTS  0.1030800D+04 0.3399080D+03 0.1245380D+03 0.1245380D+03 0.4951350D+02
EXPONENTS  0.2080560D+02 0.6583460D+01 0.2564680D+01 0.5597630D+00 0.1832730D+00
EXPONENTS  0.4830000D-01 0.4830000D-01 0.4830000D-01 0.4830000D-01 0.5897760D+03
EXPONENTS  0.1398490D+03 0.4514130D+02 0.1687330D+02 0.2771520D+01 0.5897760D+03
EXPONENTS  0.1398490D+03 0.4514130D+02 0.1687330D+02 0.2771520D+01 0.5897760D+03
EXPONENTS  0.1398490D+03 0.4514130D+02 0.1687330D+02 0.2771520D+01 0.6741100D+01
EXPONENTS  0.2771520D+01 0.6741100D+01 0.2771520D+01 0.6741100D+01 0.2771520D+01
EXPONENTS  0.1023870D+01 0.1023870D+01 0.1023870D+01 0.3813680D+00 0.3813680D+00
EXPONENTS  0.3813680D+00 0.1094370D+00 0.1094370D+00 0.1094370D+00 0.7500000D+00
EXPONENTS  0.7500000D+00 0.7500000D+00 0.7500000D+00 0.7500000D+00 0.7500000D+00
MO    1     MO 0.0        OCC NO =    2.0000000  ORB. ENERGY = -482.587135
 -0.26361496D-06 -0.49074372D-06 -0.80726881D-06 -0.10840265D-05 -0.10206518D-05
 -0.83873756D-07  0.66069047D-06  0.17555783D-05 -0.23666422D-08  0.28766392D-09
  0.26918256D-09  0.20849230D-09  0.64919990D-08  0.60749116D-08  0.47052538D-08
 -0.49032486D-06 -0.45882326D-06 -0.35537635D-06 -0.23494391D-05  0.14524195D-10
 -0.21501649D-07  0.16002243D-05  0.26933411D-05  0.84472392D-09  0.34177765D-07
 -0.25653429D-05  0.24815156D-05  0.49072019D-09  0.31694276D-07 -0.23718646D-05
 -0.95225170D-06 -0.95221143D-06  0.19044631D-05  0.10425869D-09 -0.11840902D-08
 -0.76354335D-07 -0.75103144D-07 -0.13547536D-06 -0.19972638D-06 -0.16101544D-06
 -0.21128423D-05 -0.12472540D-05  0.29010324D-06  0.44190967D-06  0.83903580D-06
 -0.75160568D-07 -0.13557894D-06 -0.19987910D-06 -0.16069492D-06 -0.21126869D-05
 -0.12473956D-05  0.24654403D-06 -0.48973996D-06  0.82598492D-06 -0.74950422D-07
 -0.13519987D-06 -0.19932024D-06 -0.16184736D-06 -0.21132804D-05 -0.12469115D-05
 -0.53661597D-06  0.14237350D-07  0.83469456D-06  0.38584358D+01  0.71955606D+01
  0.12109067D+02  0.19065833D+02  0.25289924D+02  0.16475087D+02  0.96359559D+01
  0.16238833D+02  0.34607836D+01  0.81723775D-01 -0.11309167D-01  0.24844659D-02
 -0.64203031D-03  0.70875049D-04 -0.21733290D-04 -0.66497917D-07 -0.66811669D-10
 -0.48584242D-09  0.37822655D-07 -0.15248304D-07 -0.20393519D-07 -0.23556088D-07
 -0.51845293D-05 -0.69339381D-05 -0.80092335D-05  0.38613213D-03  0.51642418D-03
  0.59650977D-03 -0.43564235D-08 -0.20547784D-08 -0.36313868D-09 -0.84570984D-06
 -0.39889288D-06 -0.70495891D-07  0.63057113D-04  0.29741919D-04  0.52562559D-05
  0.49117680D-10  0.10260917D-09  0.65384996D-10  0.43832742D-07  0.91568681D-07
  0.58349736D-07 -0.32648479D-05 -0.68204223D-05 -0.43461349D-05 -0.98963539D-10
 -0.14298005D-06  0.10648781D-04  0.10585402D-09  0.11294983D-06 -0.84128948D-05
 -0.10567468D-09 -0.53637773D-07  0.39964530D-05  0.13758897D-09  0.36606783D-07
 -0.27290977D-05  0.34993141D-04  0.26084928D-04  0.12091566D-04  0.28273006D-05
  0.34975284D-04  0.26071616D-04  0.12085396D-04  0.28258578D-05 -0.69968425D-04
 -0.52156544D-04 -0.24176962D-04 -0.56531585D-05  0.18525710D-09  0.13809615D-09
  0.64013929D-10  0.14968005D-10 -0.22902249D-08 -0.17072017D-08 -0.79136668D-09
 -0.18504067D-09  0.28200118D-05  0.21021206D-05  0.97442980D-06  0.22784525D-06
 -0.31160861D-05 -0.31145285D-05  0.62306146D-05  0.16787046D-10  0.11897559D-09
 -0.25109819D-06  0.79874838D-06  0.79835269D-06 -0.15971011D-05 -0.64125714D-11
 -0.88643149D-11  0.64357533D-07  0.14890920D-06  0.27807396D-06  0.47335914D-06
  0.73378599D-06  0.98811860D-06  0.74893217D-06 -0.54158282D-06 -0.12615709D-05
 -0.30772683D-06  0.20039119D-05 -0.18842515D-05  0.12196179D-05 -0.13126981D-05
  0.70232858D-05  0.33142188D-09  0.11049884D-07 -0.83090843D-06 -0.33369338D-08
 -0.42731582D-08 -0.45722335D-08 -0.36381857D-08 -0.83734792D-09 -0.88850081D-07
 -0.11377824D-06 -0.12174150D-06 -0.96871292D-07 -0.22295447D-07  0.66980203D-05
  0.85772455D-05  0.91775608D-05  0.73027045D-05  0.16807565D-05  0.29796396D-08
 -0.61916985D-09  0.79260136D-07 -0.16470276D-07 -0.59751442D-05  0.12416364D-05
  0.70937340D-09  0.18695485D-07 -0.14095551D-05 -0.29628967D-09 -0.77949193D-08
  0.58772461D-06  0.30015657D-09  0.13850052D-07 -0.10386686D-05 -0.50986759D-06
 -0.50959754D-06  0.10194651D-05  0.15256654D-10 -0.11415639D-08 -0.40700822D-07
MO    2     MO 0.0        OCC NO =    2.0000000  ORB. ENERGY = -101.357540
 -0.24620618D-06 -0.45833567D-06 -0.75395786D-06 -0.10124389D-05 -0.95324936D-06
 -0.78334846D-07  0.74614158D-06  0.19826379D-05 -0.26727344D-08 -0.75513223D-09
 -0.70661772D-09 -0.54730273D-09 -0.68099409D-07 -0.63724268D-07 -0.49356909D-07
  0.50881368D-05  0.47612424D-05  0.36877663D-05 -0.15534300D-04  0.32977403D-08
  0.12325441D-06 -0.92553359D-05  0.35251930D-04 -0.56882847D-08 -0.30614620D-06
  0.22936131D-04 -0.53328188D-04  0.50149483D-08  0.26175829D-06 -0.19613481D-04
 -0.57186977D-05 -0.57173091D-05  0.11436007D-04  0.45565950D-09 -0.11148899D-07
 -0.45713721D-06  0.14957141D-05  0.26980548D-05  0.39776439D-05 -0.14500717D-04
  0.13767906D-05 -0.79109416D-06 -0.12692374D-05 -0.18309733D-05 -0.11317297D-04
  0.14956634D-05  0.26979634D-05  0.39775092D-05 -0.14500417D-04  0.13770201D-05
 -0.79143766D-06 -0.10768911D-05  0.22421309D-05 -0.11262084D-04  0.14958670D-05
  0.26983306D-05  0.39780505D-05 -0.14501657D-04  0.13761449D-05 -0.79019929D-06
  0.23581401D-05  0.39788645D-07 -0.11293580D-04  0.74672163D-07  0.13925542D-06
  0.23434631D-06  0.36898035D-06  0.48943495D-06  0.31884174D-06 -0.25816702D-05
 -0.43507164D-05 -0.92721489D-06  0.15686458D-04 -0.22074108D-04  0.20752434D-04
 -0.14024055D-04  0.72704903D-05 -0.85519181D-05 -0.11539235D-04 -0.24316243D-09
  0.20510032D-07 -0.15211944D-05 -0.16059738D-08 -0.21478754D-08 -0.24809618D-08
  0.26853743D-06  0.35914966D-06  0.41484556D-06 -0.19955215D-04 -0.26688676D-04
 -0.30827480D-04  0.52929933D-08  0.24965269D-08  0.44120839D-09 -0.84317268D-06
 -0.39769619D-06 -0.70284401D-07  0.62650557D-04  0.29550160D-04  0.52223666D-05
 -0.64649967D-09 -0.13505685D-08 -0.86061431D-09  0.10374168D-06  0.21672131D-06
  0.13809996D-06 -0.77084738D-05 -0.16103368D-04 -0.10261448D-04  0.23659834D-08
 -0.38025411D-06  0.28254706D-04 -0.18475213D-08  0.28556070D-06 -0.21216799D-04
  0.84724797D-09 -0.84883118D-07  0.62993646D-05 -0.60564237D-09  0.10985411D-07
 -0.80305600D-06 -0.12863623D-03 -0.95889271D-04 -0.44449097D-04 -0.10393274D-04
 -0.12856210D-03 -0.95834011D-04 -0.44423481D-04 -0.10387284D-04  0.25719833D-03
  0.19172328D-03  0.88872578D-04  0.20780558D-04  0.84507809D-09  0.62994634D-09
  0.29200916D-09  0.68278804D-10 -0.13988422D-06 -0.10427386D-06 -0.48335740D-07
 -0.11302065D-07 -0.10317315D-04 -0.76908334D-05 -0.35650558D-05 -0.83359626D-06
  0.10284372D-04  0.10278468D-04 -0.20562840D-04 -0.71124220D-10  0.11054366D-07
  0.82490606D-06 -0.28003872D-05 -0.27988051D-05  0.55991923D-05  0.23019941D-10
 -0.28896481D-08 -0.22465961D-06  0.12702100D+01  0.23719980D+01  0.40377996D+01
  0.62592659D+01  0.84287479D+01  0.63884643D+01  0.23318183D+01  0.54317715D+01
  0.13249369D+01  0.43895878D-01 -0.56917984D-02  0.67344761D-03 -0.20364003D-03
  0.94492861D-04  0.50253723D-08  0.22461213D-06 -0.16847946D-04  0.15710749D-06
  0.20118624D-06  0.21526712D-06  0.17129085D-06  0.39423506D-07  0.59489570D-05
  0.76180218D-05  0.81512017D-05  0.64860172D-05  0.14927916D-05 -0.44705263D-03
 -0.57247962D-03 -0.61254706D-03 -0.48741166D-03 -0.11218040D-03 -0.24206177D-07
  0.50300495D-08 -0.86352587D-06  0.17944089D-06  0.64965812D-04 -0.13499912D-04
 -0.98558583D-08 -0.35667473D-06  0.26820824D-04  0.14480819D-08  0.52942030D-07
 -0.39811194D-05 -0.48081896D-08 -0.21890042D-06  0.16417543D-04  0.94408467D-05
  0.94358494D-05 -0.18876696D-04 -0.22490645D-09  0.16378995D-07  0.75522366D-06
MO    3     MO 0.0        OCC NO =    2.0000000  ORB. ENERGY =  -62.240276
 -0.26565431D-05 -0.49454015D-05 -0.81351390D-05 -0.10924126D-04 -0.10285477D-04
 -0.84522610D-06  0.79862819D-05  0.21221047D-04 -0.28607453D-07  0.37952556D-08
  0.35514242D-08  0.27507153D-08  0.83255406D-07  0.77906547D-07  0.60341632D-07
 -0.62906004D-05 -0.58864520D-05 -0.45592846D-05 -0.32670079D-04  0.18183348D-09
 -0.29935371D-06  0.22279455D-04  0.37933454D-04  0.11917459D-07  0.48146938D-06
 -0.36138972D-04  0.35787794D-04  0.69705679D-08  0.45002162D-06 -0.33677762D-04
 -0.13275390D-04 -0.13274954D-04  0.26550344D-04  0.14732695D-08 -0.16398258D-07
 -0.10645025D-05 -0.10794586D-05 -0.19471894D-05 -0.28706704D-05 -0.21903113D-05
 -0.30106863D-04 -0.17850174D-04  0.40077446D-05  0.61046742D-05  0.11614369D-04
 -0.10802487D-05 -0.19486144D-05 -0.28727713D-05 -0.21858358D-05 -0.30104636D-04
 -0.17852196D-04  0.34060092D-05 -0.67661158D-05  0.11433954D-04 -0.10773579D-05
 -0.19433999D-05 -0.28650837D-05 -0.22019318D-05 -0.30113132D-04 -0.17845285D-04
 -0.74131796D-05  0.19637495D-06  0.11554690D-04 -0.12742136D+01 -0.23762689D+01
 -0.39989099D+01 -0.62963190D+01 -0.83517688D+01 -0.54407485D+01 -0.53839967D+01
 -0.90732901D+01 -0.19336792D+01  0.58199206D+01  0.24291637D+01  0.10313521D+00
 -0.10956152D-01  0.10269937D-02 -0.31155657D-03 -0.73150366D-06 -0.95373088D-09
 -0.69669564D-08  0.54229663D-06 -0.12958483D-05 -0.17331047D-05 -0.20018696D-05
 -0.12470040D-03 -0.16677790D-03 -0.19264134D-03  0.93139806D-02  0.12456785D-01
  0.14388547D-01 -0.17973408D-05 -0.84774517D-06 -0.14982105D-06 -0.17613591D-03
 -0.83077382D-04 -0.14682172D-04  0.13154732D-01  0.62046444D-02  0.10965398D-02
 -0.47336508D-08 -0.98888214D-08 -0.63013916D-08  0.15166570D-07  0.31683687D-07
  0.20189597D-07 -0.10093822D-05 -0.21086474D-05 -0.13436801D-05  0.26241061D-08
 -0.15627228D-05  0.11632694D-03  0.53711591D-09  0.14368401D-05 -0.10701915D-03
 -0.14755657D-08 -0.74070416D-06  0.55191720D-04  0.19526017D-08  0.51659538D-06
 -0.38513671D-04 -0.44857744D-03 -0.33438296D-03 -0.15500191D-03 -0.36243196D-04
 -0.44844009D-03 -0.33428058D-03 -0.15495446D-03 -0.36232099D-04  0.89701753D-03
  0.66866354D-03  0.30995637D-03  0.72475295D-04  0.96055715D-07  0.71602785D-07
  0.33191191D-07  0.77609033D-08 -0.18959450D-06 -0.14132938D-06 -0.65512681D-07
 -0.15318449D-07 -0.36096065D-04 -0.26907080D-04 -0.12472672D-04 -0.29164123D-05
 -0.35095061D-04 -0.35075805D-04  0.70170866D-04 -0.95562770D-09  0.35513225D-08
 -0.28284705D-05  0.10701255D-04  0.10695866D-04 -0.21397121D-04 -0.43393379D-10
 -0.23911684D-09  0.86225475D-06  0.44438059D-06  0.82983905D-06  0.14126166D-05
  0.21897925D-05  0.29487817D-05  0.22349923D-05 -0.45720733D-05 -0.10650254D-04
 -0.25978476D-05  0.24094086D-04 -0.24506343D-04  0.16933637D-04 -0.18670779D-04
  0.99665986D-04  0.47071484D-08  0.15690070D-06 -0.11798350D-04 -0.37973662D-07
 -0.48627715D-07 -0.52031134D-07 -0.41401850D-07 -0.95288574D-08 -0.10097279D-05
 -0.12930215D-05 -0.13835191D-05 -0.11008841D-05 -0.25337438D-06  0.76120784D-04
  0.97477557D-04  0.10429994D-03  0.82992819D-04  0.19101242D-04  0.31220601D-07
 -0.64876486D-08  0.83176767D-06 -0.17284152D-06 -0.62703303D-04  0.13029762D-04
  0.89420036D-08  0.23522898D-06 -0.17735727D-04 -0.40126759D-08 -0.10592007D-06
  0.79859229D-05  0.42231897D-08  0.19544109D-06 -0.14656589D-04 -0.71532754D-05
 -0.71494844D-05  0.14302760D-04  0.21358235D-09 -0.15989194D-07 -0.57102760D-06
MO    4     MO 0.0        OCC NO =    2.0000000  ORB. ENERGY =  -56.058568
  0.97540466D-06  0.18158063D-05  0.29869843D-05  0.40110186D-05  0.37765252D-05
  0.31034222D-06 -0.24698779D-05 -0.65629280D-05  0.88472855D-08  0.14968860D-08
  0.14007165D-08  0.10849091D-08  0.78381655D-07  0.73345917D-07  0.56809248D-07
 -0.58802432D-05 -0.55024589D-05 -0.42618671D-05 -0.75045801D-05  0.36168925D-08
 -0.42606104D-06  0.31662183D-04  0.74630672D-04  0.22741076D-08  0.44784986D-06
 -0.33398043D-04  0.35920644D-04 -0.87789871D-08 -0.65169933D-06  0.48741447D-04
  0.11430078D-04  0.11424141D-04 -0.22854218D-04 -0.39041360D-09  0.27817016D-07
  0.91139331D-06  0.10933864D-04  0.19723131D-04  0.29077094D-04 -0.84402694D-04
  0.67841607D-05 -0.75812960D-05 -0.35119139D-04 -0.55506856D-04  0.59205316D-04
  0.10932773D-04  0.19721162D-04  0.29074191D-04 -0.84405201D-04  0.67852420D-05
 -0.75827180D-05 -0.29822872D-04  0.56956372D-04  0.60709201D-04  0.10936662D-04
  0.19728178D-04  0.29084535D-04 -0.84397424D-04  0.67815125D-05 -0.75780475D-05
  0.64934424D-04 -0.38619689D-05  0.59915559D-04  0.14719889D-03  0.27450983D-03
  0.46195953D-03  0.72735938D-03  0.96480775D-03  0.62852270D-03  0.63769867D-03
  0.10746710D-02  0.22903147D-03 -0.75396175D-03 -0.19582641D-03 -0.92620965D-04
  0.58891605D-04 -0.21325916D-04  0.14820717D-04  0.65954582D-04 -0.35173070D-09
 -0.28717132D-07  0.21491387D-05 -0.20402989D-02 -0.27287542D-02 -0.31519216D-02
 -0.11775198D+01 -0.15748488D+01 -0.18190718D+01  0.87704271D+02  0.11729821D+03
  0.13548848D+03 -0.26234186D-02 -0.12373783D-02 -0.21868048D-03 -0.15140855D+01
 -0.71414320D+00 -0.12620973D+00  0.11277242D+03  0.53190959D+02  0.94003784D+01
 -0.23361309D-05 -0.48802885D-05 -0.31098356D-05 -0.13451896D-02 -0.28101651D-02
 -0.17907038D-02  0.10019286D+00  0.20930764D+00  0.13337579D+00  0.89549654D-06
  0.50505743D-03 -0.37618398D-01 -0.26275173D-06 -0.14210883D-03  0.10585065D-01
  0.31909925D-07  0.14828586D-04 -0.11046443D-02 -0.41519231D-08 -0.16398613D-05
  0.12217838D-03 -0.33944829D-03 -0.25303485D-03 -0.11729332D-03 -0.27426014D-04
 -0.33923055D-03 -0.25287254D-03 -0.11721808D-03 -0.27408421D-04  0.67867884D-03
  0.50590739D-03  0.23451139D-03  0.54834435D-04 -0.32670162D-08 -0.24353310D-08
 -0.11288882D-08 -0.26396136D-09 -0.11880937D-06 -0.88564039D-07 -0.41053514D-07
 -0.95993045D-08 -0.27313101D-04 -0.20359998D-04 -0.94377973D-05 -0.22067853D-05
 -0.23574601D-04 -0.23565066D-04  0.47139668D-04  0.10785013D-08 -0.17497607D-07
 -0.18935379D-05  0.82610221D-05  0.82574440D-05 -0.16518466D-04 -0.31617417D-09
  0.63682633D-08  0.66347604D-06 -0.41255284D-06 -0.77040372D-06 -0.13114412D-05
 -0.20329536D-05 -0.27375819D-05 -0.20749161D-05  0.45997660D-05  0.10714762D-04
  0.26135826D-05 -0.24833924D-04  0.25598417D-04 -0.19847364D-04  0.22633147D-04
 -0.11561758D-03 -0.68675777D-08 -0.19454914D-06  0.14654950D-04  0.14142109D-07
  0.18109879D-07  0.19377377D-07  0.15418831D-07  0.35487265D-08  0.92474567D-06
  0.11841963D-05  0.12670773D-05  0.10082299D-05  0.23204951D-06 -0.69192978D-04
 -0.88606056D-04 -0.94807530D-04 -0.75439585D-04 -0.17362824D-04 -0.11310773D-07
  0.23503813D-08 -0.74516848D-06  0.15484619D-06  0.55754185D-04 -0.11585733D-04
 -0.36609705D-08 -0.23156147D-06  0.17329289D-04  0.22116292D-08  0.13358429D-06
 -0.99995044D-05 -0.43269976D-10 -0.55413521D-07  0.41259842D-05 -0.80313153D-06
 -0.80240854D-06  0.16055401D-05 -0.57218230D-10  0.13008017D-09 -0.64686198D-07
MO    5     MO 0.0        OCC NO =    2.0000000  ORB. ENERGY =  -56.057734
  0.73024302D-09  0.13594152D-08  0.22362252D-08  0.30028751D-08  0.28273201D-08
  0.23233971D-09 -0.23880187D-08 -0.63454129D-08  0.85540599D-11  0.13401101D-04
  0.12540128D-04  0.97128141D-05  0.44687982D-05  0.41816941D-05  0.32388837D-05
  0.63532675D-07  0.59450930D-07  0.46047044D-07  0.71920055D-08 -0.95621276D-05
 -0.31915889D-05 -0.48084021D-07 -0.89658448D-08  0.10333954D-04  0.34439715D-05
  0.51701849D-07  0.96823759D-08 -0.34614740D-05 -0.11534066D-05 -0.10962867D-07
  0.55136649D-06 -0.53314089D-06 -0.18225592D-07 -0.49891135D-06 -0.34017969D-05
 -0.11446825D-05 -0.15900476D-06 -0.28682190D-06 -0.42285109D-06  0.32654241D-05
  0.15010207D-04 -0.20779481D-04 -0.45038057D-05  0.79763686D-05 -0.17597350D-04
 -0.31736700D-07 -0.57248479D-07 -0.84399348D-07  0.65153058D-06  0.29754906D-05
 -0.41184876D-05 -0.10780304D-04 -0.64331944D-05 -0.35995961D-05  0.19063449D-06
  0.34387742D-06  0.50696596D-06 -0.39085086D-05 -0.17975306D-04  0.24891349D-04
  0.46688777D-05 -0.50854412D-05  0.21132793D-04 -0.14737346D-07 -0.27483539D-07
 -0.46250740D-07 -0.72822200D-07 -0.96595197D-07 -0.62926811D-07 -0.61262654D-07
 -0.10324186D-06 -0.22002673D-07  0.66272728D-07  0.30310603D-07 -0.30390119D-08
  0.31848680D-08 -0.29443010D-08  0.33809335D-08  0.74865858D-08 -0.81258764D-05
 -0.27075773D-05 -0.35544733D-07  0.83215146D+02  0.11129432D+03  0.12855353D+03
  0.27726204D+02  0.37081820D+02  0.42832363D+02  0.37418859D+00  0.50045055D+00
  0.57805899D+00  0.10699989D+03  0.50468250D+02  0.89191971D+01  0.35650972D+02
  0.16815364D+02  0.29717604D+01  0.48114008D+00  0.22693759D+00  0.40106425D-01
  0.94932060D-01  0.19831758D+00  0.12637267D+00  0.31630126D-01  0.66076837D-01
  0.42105728D-01  0.42687126D-03  0.89175435D-03  0.56824703D-03 -0.35330112D-01
 -0.11771532D-01 -0.15885207D-03  0.97806927D-02  0.32587992D-02  0.43969409D-04
 -0.96579315D-03 -0.32179013D-03 -0.43401000D-05  0.97409991D-04  0.32455993D-04
  0.43912151D-06  0.20919907D-05  0.15594321D-05  0.72286864D-06  0.16902417D-06
 -0.12404648D-04 -0.92467935D-05 -0.42863150D-05 -0.10022441D-05  0.10312657D-04
  0.76873614D-05  0.35634463D-05  0.83321994D-06 -0.32631070D-04 -0.24324170D-04
 -0.11275374D-04 -0.26364551D-05  0.22504197D-02  0.16775298D-02  0.77761237D-03
  0.18182458D-03  0.74962542D-03  0.55879307D-03  0.25902635D-03  0.60566624D-04
 -0.11087311D-06  0.22962015D-06 -0.11874704D-06  0.44415376D-06 -0.24089254D-04
 -0.80223547D-05  0.18120928D-07 -0.30108325D-07  0.11987397D-07 -0.48763422D-07
  0.21642718D-05  0.72073880D-06 -0.39752376D-10 -0.74233833D-10 -0.12636661D-09
 -0.19588942D-09 -0.26378533D-09 -0.19993280D-09  0.44190000D-09  0.10293683D-08
  0.25108715D-09 -0.24172761D-08  0.25604960D-08 -0.22460378D-08  0.32117628D-08
 -0.16559294D-07 -0.66618031D-06 -0.22215523D-06 -0.74631251D-09 -0.38072327D-04
 -0.48754061D-04 -0.52166323D-04 -0.41509422D-04 -0.95536157D-05 -0.12687699D-04
 -0.16247414D-04 -0.17384559D-04 -0.13833120D-04 -0.31837666D-05 -0.20647845D-06
 -0.26440893D-06 -0.28291472D-06 -0.22511892D-06 -0.51812326D-07  0.30567045D-04
 -0.63518394D-05  0.10186555D-04 -0.21167687D-05  0.16570256D-06 -0.34433033D-07
  0.96364959D-05  0.32113813D-05  0.52317987D-07 -0.49353340D-05 -0.16447238D-05
 -0.26865753D-07  0.18649021D-05  0.62154782D-06  0.11152484D-07  0.16088429D-06
 -0.15457054D-06 -0.63137488D-08 -0.14611475D-06 -0.10188977D-05 -0.34296256D-06
MO    6     MO 0.0        OCC NO =    2.0000000  ORB. ENERGY =  -56.057733
 -0.54300262D-09 -0.10108498D-08 -0.16628384D-08 -0.22329129D-08 -0.21023717D-08
 -0.17276587D-09  0.17787122D-08  0.47263714D-08 -0.63714788D-11 -0.44670413D-05
 -0.41800501D-05 -0.32376104D-05  0.13415943D-04  0.12554017D-04  0.97235714D-05
  0.17757794D-06  0.16616920D-06  0.12870447D-06 -0.54182773D-08  0.31886219D-05
 -0.95854472D-05 -0.12476469D-06  0.70730311D-08 -0.34438008D-05  0.10336837D-04
  0.13464917D-06 -0.71139643D-08  0.11534335D-05 -0.34612219D-05 -0.49653390D-07
 -0.27328982D-06  0.31668211D-06 -0.43392290D-07 -0.10979166D-05  0.11162130D-05
 -0.33830155D-05 -0.12758324D-06 -0.23014197D-06 -0.33928993D-06  0.26222181D-05
  0.12100277D-04 -0.16751465D-04  0.10093611D-04 -0.23940093D-05 -0.14295624D-04
  0.20127754D-06  0.36307597D-06  0.53526968D-06 -0.41370270D-05 -0.19052985D-04
  0.26373550D-04 -0.41130556D-05  0.33888466D-05  0.22511156D-04 -0.73479716D-07
 -0.13254692D-06 -0.19540910D-06  0.15074196D-05  0.69450063D-05 -0.96171872D-05
 -0.24410153D-05 -0.11633275D-04 -0.83453184D-05  0.10931663D-07  0.20386355D-07
  0.34307228D-07  0.54017034D-07  0.71651036D-07  0.46676971D-07  0.45596731D-07
  0.76841127D-07  0.16376208D-07 -0.50211541D-07 -0.21426017D-07  0.15064721D-08
 -0.16870336D-08  0.19332728D-08 -0.23892868D-08 -0.53195549D-08  0.27077386D-05
 -0.81256858D-05 -0.10973368D-06 -0.27728729D+02 -0.37085197D+02 -0.42836263D+02
  0.83207656D+02  0.11128430D+03  0.12854196D+03  0.11165031D+01  0.14932432D+01
  0.17248111D+01 -0.35654218D+02 -0.16816895D+02 -0.29720310D+01  0.10699026D+03
  0.50463707D+02  0.89183943D+01  0.14356246D+01  0.67713581D+00  0.11966945D+00
 -0.31633010D-01 -0.66082860D-01 -0.42109567D-01  0.94923519D-01  0.19829974D+00
  0.12636130D+00  0.12737134D-02  0.26608478D-02  0.16955553D-02  0.11772613D-01
 -0.35326950D-01 -0.47403933D-03 -0.32591010D-02  0.97798249D-02  0.13123772D-03
  0.32181989D-03 -0.96570994D-03 -0.12960608D-04 -0.32458875D-04  0.97402567D-04
  0.13062552D-05 -0.11123266D-05 -0.82916131D-06 -0.38435449D-06 -0.89871374D-07
 -0.28935530D-04 -0.21569404D-04 -0.99984131D-05 -0.23378708D-05  0.30047857D-04
  0.22398566D-04  0.10382768D-04  0.24277422D-05  0.47856759D-05  0.35673851D-05
  0.16536474D-05  0.38666276D-06 -0.74996198D-03 -0.55904396D-03 -0.25914264D-03
 -0.60593817D-04  0.22499104D-02  0.16771501D-02  0.77743637D-03  0.18178343D-03
  0.55879274D-07  0.25966777D-06 -0.31554704D-06  0.14543776D-06  0.80315238D-05
 -0.24089966D-04 -0.89180600D-08 -0.18445894D-07  0.27363954D-07 -0.31211467D-07
 -0.72202864D-06  0.21657907D-05  0.28081405D-10  0.52439390D-10  0.89266411D-10
  0.13837790D-09  0.18634013D-09  0.14123417D-09 -0.31211247D-09 -0.72703931D-09
 -0.17734200D-09  0.17087841D-08 -0.18132943D-08  0.16042800D-08 -0.23115428D-08
  0.11844068D-07  0.22204717D-06 -0.66677993D-06 -0.10560454D-07  0.12687513D-04
  0.16247176D-04  0.17384305D-04  0.13832917D-04  0.31837200D-05 -0.38081608D-04
 -0.48765946D-04 -0.52179040D-04 -0.41519541D-04 -0.95559446D-05 -0.48475307D-06
 -0.62075746D-06 -0.66420383D-06 -0.52851563D-06 -0.12164070D-06 -0.10186400D-04
  0.21167363D-05  0.30574535D-04 -0.63533959D-05  0.38924932D-06 -0.80886104D-07
 -0.32113380D-05  0.96388272D-05  0.12265101D-06  0.16446944D-05 -0.49365941D-05
 -0.62767841D-07 -0.62150700D-06  0.18657007D-05  0.22990658D-07 -0.80534776D-07
  0.92892823D-07 -0.12358046D-07 -0.32496998D-06  0.33451910D-06 -0.10145353D-05
MO    7     MO 0.0        OCC NO =    2.0000000  ORB. ENERGY =  -10.090118
  0.43813269D+00  0.81562467D+00  0.13416949D+01  0.18016711D+01  0.16963412D+01
  0.13939965D+00  0.37094543D+00  0.98567146D+00 -0.13287540D-02 -0.19325765D-08
 -0.18084155D-08 -0.14006877D-08 -0.16989453D-04 -0.15897942D-04 -0.12313571D-04
  0.12648444D-02  0.11835827D-02  0.91673054D-03  0.78426750D-02  0.64371597D-07
  0.95004755D-05 -0.70749267D-03 -0.13851656D-02  0.17489583D-07  0.32933109D-06
 -0.24963609D-04 -0.60875595D-03 -0.11626728D-07 -0.79326513D-06  0.59320786D-04
  0.80134106D-03  0.80110270D-03 -0.16024438D-02 -0.61127097D-07  0.11538516D-05
  0.64183419D-04  0.42542854D-04  0.76741240D-04  0.11313682D-03 -0.12251805D-02
  0.68018266D-03  0.11723901D-04 -0.12538074D-02 -0.19494159D-02 -0.31220442D-03
  0.42536115D-04  0.76729083D-04  0.11311889D-03 -0.12252196D-02  0.68019682D-03
  0.11715065D-04 -0.10647270D-02  0.20662923D-02 -0.25855035D-03  0.42554000D-04
  0.76761345D-04  0.11316646D-03 -0.12251291D-02  0.68016207D-03  0.11749619D-04
  0.23186036D-02 -0.10536151D-03 -0.28672648D-03 -0.53503487D-06 -0.99778150D-06
 -0.16791190D-05 -0.26437878D-05 -0.35068592D-05 -0.22845387D-05  0.11594853D-04
  0.19540032D-04  0.41643278D-05 -0.10295693D-03  0.18441982D-03 -0.23454173D-03
  0.19947990D-03 -0.13913504D-03  0.11675941D-03  0.14079019D-03 -0.21186111D-08
 -0.25566609D-06  0.19090740D-04 -0.75120398D-07 -0.10046817D-06 -0.11604849D-06
 -0.20326986D-05 -0.27185894D-05 -0.31401805D-05  0.15320366D-03  0.20489896D-03
  0.23667411D-03 -0.24592769D-06 -0.11599582D-06 -0.20499811D-07 -0.37189358D-05
 -0.17540969D-05 -0.30999958D-06  0.28296477D-03  0.13346496D-03  0.23587113D-04
  0.32888164D-07  0.68704937D-07  0.43780416D-07  0.33102097D-06  0.69151853D-06
  0.44065202D-06 -0.25457435D-04 -0.53181791D-04 -0.33888699D-04 -0.12599304D-06
 -0.28691644D-06  0.24469129D-04  0.91096934D-07 -0.31479889D-06  0.21192175D-04
 -0.20454479D-07  0.82879577D-06 -0.61204114D-04  0.59029037D-08 -0.65799845D-06
  0.48841852D-04 -0.85103808D-03 -0.63438909D-03 -0.29406858D-03 -0.68760347D-04
 -0.85070594D-03 -0.63414150D-03 -0.29395382D-03 -0.68733511D-04  0.17017440D-02
  0.12685306D-02  0.58802240D-03  0.13749386D-03  0.30861629D-07  0.23005176D-07
  0.10663959D-07  0.24934916D-08 -0.63731772D-06 -0.47507558D-06 -0.22021943D-06
 -0.51492628D-07 -0.68370129D-04 -0.50965127D-04 -0.23624685D-04 -0.55240228D-05
  0.81404677D-04  0.81373838D-04 -0.16277851D-03 -0.31010230D-08  0.57099254D-07
  0.65412028D-05 -0.20147756D-04 -0.20142292D-04  0.40290048D-04  0.11036020D-08
 -0.79412113D-08 -0.16212232D-05 -0.34684358D-05 -0.64769784D-05 -0.11025617D-04
 -0.17091554D-04 -0.23015542D-04 -0.17444343D-04 -0.37166194D-05 -0.86575472D-05
 -0.21117795D-05 -0.38928784D-04  0.77528404D-04 -0.12378880D-03  0.14532353D-03
  0.30163101D-04 -0.44399926D-08 -0.35695678D-07  0.27739409D-05  0.59694987D-07
  0.76443268D-07  0.81793477D-07  0.65084134D-07  0.14979462D-07  0.38149601D-05
  0.48853016D-05  0.52272203D-05  0.41593672D-05  0.95730063D-06 -0.28558666D-03
 -0.36571207D-03 -0.39130800D-03 -0.31136886D-03 -0.71663211D-04 -0.60692679D-07
  0.12611954D-07 -0.33501438D-05  0.69616070D-06  0.25097445D-03 -0.52152552D-04
 -0.43579142D-07 -0.23073225D-05  0.17289243D-03  0.33918348D-07  0.16832279D-05
 -0.12617221D-03  0.16946599D-07  0.60968692D-06 -0.45821965D-04 -0.91913087D-04