 Single Point Energy
GAUSSIAN             31 MOL ORBITALS    210 PRIMITIVES        6 NUCLEI   B3LYP
  C    1    (CENTRE  1)  -2.59976749  0.04248012  0.33426257  CHARGE =  6.0
  H    2    (CENTRE  2)  -1.78475163 -1.00153632  1.89362210  CHARGE =  1.0
  H    3    (CENTRE  3)  -2.21241795 -0.88007061 -1.45030306  CHARGE =  1.0
  H    4    (CENTRE  4)  -1.93802976  1.97837647  0.31993359  CHARGE =  1.0
  Br   5    (CENTRE  5)   3.56602852 -0.05840547 -0.45835836  CHARGE = 35.0
  Cl   6    (CENTRE  6)  -6.07512905  0.09956125  0.78080674  CHARGE = 17.0
CENTRE ASSIGNMENTS    1  1  1  1  1  1  1  1  1  1  1  1  1  1  1  1  1  1  1  1
CENTRE ASSIGNMENTS    1  1  1  1  1  1  1  1  1  1  1  1  1  1  1  1  2  2  2  2
CENTRE ASSIGNMENTS    2  2  2  2  2  3  3  3  3  3  3  3  3  3  4  4  4  4  4  4
CENTRE ASSIGNMENTS    4  4  4  5  5  5  5  5  5  5  5  5  5  5  5  5  5  5  5  5
CENTRE ASSIGNMENTS    5  5  5  5  5  5  5  5  5  5  5  5  5  5  5  5  5  5  5  5
CENTRE ASSIGNMENTS    5  5  5  5  5  5  5  5  5  5  5  5  5  5  5  5  5  5  5  5
CENTRE ASSIGNMENTS    5  5  5  5  5  5  5  5  5  5  5  5  5  5  5  5  5  5  5  5
CENTRE ASSIGNMENTS    5  5  5  5  5  5  5  5  5  5  5  5  5  5  5  5  5  6  6  6
CENTRE ASSIGNMENTS    6  6  6  6  6  6  6  6  6  6  6  6  6  6  6  6  6  6  6  6
CENTRE ASSIGNMENTS    6  6  6  6  6  6  6  6  6  6  6  6  6  6  6  6  6  6  6  6
CENTRE ASSIGNMENTS    6  6  6  6  6  6  6  6  6  6
TYPE ASSIGNMENTS      1  1  1  1  1  1  1  1  1  2  2  2  3  3  3  4  4  4  1  2
TYPE ASSIGNMENTS      3  4  1  2  3  4  1  2  3  4  5  6  7  8  9 10  1  1  1  1
TYPE ASSIGNMENTS      1  1  2  3  4  1  1  1  1  1  1  2  3  4  1  1  1  1  1  1
TYPE ASSIGNMENTS      2  3  4  1  1  1  1  1  1  1  1  1  1  1  1  1  1  1  1  2
TYPE ASSIGNMENTS      3  4  2  2  2  3  3  3  4  4  4  2  2  2  3  3  3  4  4  4
TYPE ASSIGNMENTS      2  2  2  3  3  3  4  4  4  2  3  4  2  3  4  2  3  4  2  3
TYPE ASSIGNMENTS      4  5  5  5  5  6  6  6  6  7  7  7  7  8  8  8  8  9  9  9
TYPE ASSIGNMENTS      9 10 10 10 10  5  6  7  8  9 10  5  6  7  8  9 10  1  1  1
TYPE ASSIGNMENTS      1  1  1  1  1  1  1  1  1  1  1  2  3  4  2  2  2  2  2  3
TYPE ASSIGNMENTS      3  3  3  3  4  4  4  4  4  2  2  3  3  4  4  2  3  4  2  3
TYPE ASSIGNMENTS      4  2  3  4  5  6  7  8  9 10
EXPONENTS  0.4563240D+04 0.6820240D+03 0.1549730D+03 0.4445530D+02 0.1302900D+02
EXPONENTS  0.1827730D+01 0.2096420D+02 0.4803310D+01 0.1459330D+01 0.2096420D+02
EXPONENTS  0.4803310D+01 0.1459330D+01 0.2096420D+02 0.4803310D+01 0.1459330D+01
EXPONENTS  0.2096420D+02 0.4803310D+01 0.1459330D+01 0.4834560D+00 0.4834560D+00
EXPONENTS  0.4834560D+00 0.4834560D+00 0.1455850D+00 0.1455850D+00 0.1455850D+00
EXPONENTS  0.1455850D+00 0.4380000D-01 0.4380000D-01 0.4380000D-01 0.4380000D-01
EXPONENTS  0.6260000D+00 0.6260000D+00 0.6260000D+00 0.6260000D+00 0.6260000D+00
EXPONENTS  0.6260000D+00 0.3386500D+02 0.5094790D+01 0.1158790D+01 0.3258400D+00
EXPONENTS  0.1027410D+00 0.3600000D-01 0.7500000D+00 0.7500000D+00 0.7500000D+00
EXPONENTS  0.3386500D+02 0.5094790D+01 0.1158790D+01 0.3258400D+00 0.1027410D+00
EXPONENTS  0.3600000D-01 0.7500000D+00 0.7500000D+00 0.7500000D+00 0.3386500D+02
EXPONENTS  0.5094790D+01 0.1158790D+01 0.3258400D+00 0.1027410D+00 0.3600000D-01
EXPONENTS  0.7500000D+00 0.7500000D+00 0.7500000D+00 0.4397000D+06 0.6603000D+05
EXPONENTS  0.1514000D+05 0.4317000D+04 0.1414000D+04 0.5239000D+03 0.5239000D+03
EXPONENTS  0.2077000D+03 0.8654000D+02 0.3052000D+02 0.1298000D+02 0.4412000D+01
EXPONENTS  0.1862000D+01 0.3932000D+00 0.1400000D+00 0.3500000D-01 0.3500000D-01
EXPONENTS  0.3500000D-01 0.3500000D-01 0.2957000D+04 0.7003000D+03 0.2246000D+03
EXPONENTS  0.2957000D+04 0.7003000D+03 0.2246000D+03 0.2957000D+04 0.7003000D+03
EXPONENTS  0.2246000D+03 0.8259000D+02 0.3319000D+02 0.1420000D+02 0.8259000D+02
EXPONENTS  0.3319000D+02 0.1420000D+02 0.8259000D+02 0.3319000D+02 0.1420000D+02
EXPONENTS  0.1420000D+02 0.7438000D+01 0.3526000D+01 0.1420000D+02 0.7438000D+01
EXPONENTS  0.3526000D+01 0.1420000D+02 0.7438000D+01 0.3526000D+01 0.1595000D+01
EXPONENTS  0.1595000D+01 0.1595000D+01 0.8462000D+00 0.8462000D+00 0.8462000D+00
EXPONENTS  0.3186000D+00 0.3186000D+00 0.3186000D+00 0.1096000D+00 0.1096000D+00
EXPONENTS  0.1096000D+00 0.1348000D+03 0.3639000D+02 0.1216000D+02 0.4341000D+01
EXPONENTS  0.1348000D+03 0.3639000D+02 0.1216000D+02 0.4341000D+01 0.1348000D+03
EXPONENTS  0.3639000D+02 0.1216000D+02 0.4341000D+01 0.1348000D+03 0.3639000D+02
EXPONENTS  0.1216000D+02 0.4341000D+01 0.1348000D+03 0.3639000D+02 0.1216000D+02
EXPONENTS  0.4341000D+01 0.1348000D+03 0.3639000D+02 0.1216000D+02 0.4341000D+01
EXPONENTS  0.1535000D+01 0.1535000D+01 0.1535000D+01 0.1535000D+01 0.1535000D+01
EXPONENTS  0.1535000D+01 0.4510000D+00 0.4510000D+00 0.4510000D+00 0.4510000D+00
EXPONENTS  0.4510000D+00 0.4510000D+00 0.1058190D+06 0.1587200D+05 0.3619650D+04
EXPONENTS  0.1030800D+04 0.3399080D+03 0.1245380D+03 0.1245380D+03 0.4951350D+02
EXPONENTS  0.2080560D+02 0.6583460D+01 0.2564680D+01 0.5597630D+00 0.1832730D+00
EXPONENTS  0.4830000D-01 0.4830000D-01 0.4830000D-01 0.4830000D-01 0.5897760D+03
EXPONENTS  0.1398490D+03 0.4514130D+02 0.1687330D+02 0.2771520D+01 0.5897760D+03
EXPONENTS  0.1398490D+03 0.4514130D+02 0.1687330D+02 0.2771520D+01 0.5897760D+03
EXPONENTS  0.1398490D+03 0.4514130D+02 0.1687330D+02 0.2771520D+01 0.6741100D+01
EXPONENTS  0.2771520D+01 0.6741100D+01 0.2771520D+01 0.6741100D+01 0.2771520D+01
EXPONENTS  0.1023870D+01 0.1023870D+01 0.1023870D+01 0.3813680D+00 0.3813680D+00
EXPONENTS  0.3813680D+00 0.1094370D+00 0.1094370D+00 0.1094370D+00 0.7500000D+00
EXPONENTS  0.7500000D+00 0.7500000D+00 0.7500000D+00 0.7500000D+00 0.7500000D+00
MO    1     MO 0.0        OCC NO =    2.0000000  ORB. ENERGY = -482.553836
  0.35737917D-07  0.66529450D-07  0.10944032D-06  0.14695998D-06  0.13836836D-06
  0.11370649D-07 -0.75692698D-07 -0.20112967D-06  0.27113685D-09  0.31091917D-05
  0.29094374D-05  0.22534717D-05 -0.50916101D-07 -0.47644926D-07 -0.36902837D-07
 -0.39959212D-06 -0.37391977D-06 -0.28961532D-06 -0.13231842D-06 -0.24579774D-05
  0.40086481D-07  0.31603638D-06  0.19294558D-05  0.27448561D-05 -0.45216265D-07
 -0.35263498D-06  0.51343851D-05  0.56604139D-06 -0.93295505D-08 -0.72745072D-07
 -0.42450510D-06  0.21742437D-06  0.20708072D-06  0.20769882D-07  0.16516844D-06
 -0.28296560D-08  0.21545348D-06  0.38864734D-06  0.57296861D-06 -0.18962971D-05
 -0.19356141D-05 -0.17536656D-05 -0.12025390D-05 -0.68836323D-06  0.12979959D-05
  0.21542476D-06  0.38859553D-06  0.57289224D-06 -0.18961835D-05 -0.19352241D-05
 -0.17539553D-05 -0.14959704D-05 -0.60451086D-06 -0.99927305D-06  0.21542278D-06
  0.38859196D-06  0.57288698D-06 -0.18960438D-05 -0.19349830D-05 -0.17539201D-05
 -0.13075034D-05  0.13581657D-05  0.21646387D-06  0.38584360D+01  0.71955611D+01
  0.12109067D+02  0.19065834D+02  0.25289925D+02  0.16475088D+02  0.96359574D+01
  0.16238836D+02  0.34607842D+01  0.81715860D-01 -0.11300027D-01  0.24767435D-02
 -0.63688175D-03  0.67595929D-04 -0.18806754D-04  0.23098313D-05 -0.34861306D-06
  0.57147901D-08  0.44800820D-07 -0.13024297D-03 -0.17419069D-03 -0.20120368D-03
  0.21175693D-05  0.28320979D-05  0.32712916D-05  0.16731253D-04  0.22376857D-04
  0.25846996D-04 -0.35322380D-04 -0.16660378D-04 -0.29443700D-05  0.57885890D-06
  0.27302827D-06  0.48251980D-07  0.45401474D-05  0.21414348D-05  0.37845337D-06
  0.26092037D-05  0.54507505D-05  0.34733476D-05 -0.42662044D-07 -0.89123038D-07
 -0.56791315D-07 -0.33546808D-06 -0.70080876D-06 -0.44657197D-06 -0.90974978D-05
  0.14870720D-06  0.11697170D-05  0.71752538D-05 -0.11727725D-06 -0.92256201D-06
 -0.31094569D-05  0.50824564D-07  0.39978961D-06  0.15524158D-05 -0.25381199D-07
 -0.19958546D-06 -0.36206046D-04 -0.26989063D-04 -0.12510675D-04 -0.29252983D-05
  0.18548913D-04  0.13826912D-04  0.64094108D-05  0.14986753D-05  0.17657132D-04
  0.13162151D-04  0.61012638D-05  0.14266230D-05  0.17893311D-05  0.13338206D-05
  0.61828733D-06  0.14457053D-06  0.14085907D-04  0.10500054D-04  0.48672589D-05
  0.11380828D-05 -0.22938371D-06 -0.17098943D-06 -0.79261484D-07 -0.18533252D-07
  0.28252355D-05 -0.14474091D-05 -0.13778264D-05 -0.13957769D-06 -0.10991419D-05
  0.17886386D-07 -0.66175992D-06  0.33902899D-06  0.32273093D-06  0.32692103D-07
  0.25745227D-06 -0.41890490D-08  0.62436056D-07  0.11659348D-06  0.19847449D-06
  0.30766872D-06  0.41430770D-06  0.31401935D-06 -0.22702910D-06 -0.52884488D-06
 -0.12899771D-06  0.83994172D-06 -0.79059090D-06  0.45507537D-06  0.66988401D-07
  0.21561528D-05  0.14150422D-06 -0.23210728D-08 -0.18180177D-07 -0.68980731D-06
 -0.88334259D-06 -0.94516710D-06 -0.75208176D-06 -0.17309564D-06  0.11650915D-07
  0.14919746D-07  0.15963968D-07  0.12702737D-07  0.29236030D-08  0.88124204D-07
  0.11284871D-06  0.12074691D-06  0.96079884D-07  0.22113300D-07  0.57411960D-06
 -0.11930219D-06 -0.97169323D-08  0.20191809D-08 -0.73314906D-07  0.15234855D-07
  0.13927137D-06 -0.23571282D-08 -0.17783178D-07  0.15949380D-06 -0.25904577D-08
 -0.20543777D-07  0.77190590D-06 -0.12667806D-07 -0.99167480D-07  0.60169831D-06
 -0.30824361D-06 -0.29345469D-06 -0.29874207D-07 -0.23385374D-06  0.38160587D-08
MO    2     MO 0.0        OCC NO =    2.0000000  ORB. ENERGY = -101.416657
  0.18896340D-05  0.35177291D-05  0.57866313D-05  0.77704746D-05  0.73161947D-05
  0.60122043D-06 -0.44586986D-05 -0.11847597D-04  0.15971388D-07 -0.52394702D-04
 -0.49028532D-04 -0.37974493D-04  0.86110980D-06  0.80578661D-06  0.62411287D-06
  0.67326591D-05  0.63001101D-05  0.48796788D-05 -0.47467267D-05  0.27629498D-04
 -0.45474845D-06 -0.35505571D-05  0.59476645D-04 -0.24964556D-04  0.40935360D-06
  0.32078206D-05 -0.12225620D-03  0.26162275D-04 -0.42940988D-06 -0.33617516D-05
 -0.14949536D-04  0.76587808D-05  0.72907556D-05  0.74135373D-06  0.58110429D-05
 -0.95658462D-07  0.78307604D-06  0.14125575D-05  0.20824820D-05 -0.24373810D-04
  0.30423877D-05  0.32641139D-05  0.14686120D-04 -0.95719608D-05  0.13180222D-04
  0.78305548D-06  0.14125204D-05  0.20824273D-05 -0.24373835D-04  0.30425034D-05
  0.32647579D-05  0.10814275D-04 -0.84720484D-05 -0.17096661D-04  0.78294032D-06
  0.14123126D-05  0.20821211D-05 -0.24372498D-04  0.30425878D-05  0.32646905D-05
  0.13298017D-04  0.17406269D-04 -0.10685781D-05  0.32042547D-07  0.59755845D-07
  0.10056027D-06  0.15833304D-06  0.21002127D-06  0.13681807D-06 -0.11067580D-05
 -0.18651454D-05 -0.39749560D-06  0.67405113D-05 -0.95337893D-05  0.91428077D-05
 -0.64686285D-05  0.46650239D-05 -0.58078264D-05 -0.11302333D-04  0.18055267D-05
 -0.29428287D-07 -0.23221221D-06  0.56046795D-05  0.74958591D-05  0.86582955D-05
 -0.90590397D-07 -0.12115819D-06 -0.13994706D-06 -0.72180660D-06 -0.96536484D-06
 -0.11150709D-05 -0.17426302D-04 -0.82194004D-05 -0.14526054D-05  0.28156103D-06
  0.13280287D-06  0.23470102D-07  0.22443970D-05  0.10586066D-05  0.18708635D-06
  0.21122607D-05  0.44126130D-05  0.28118217D-05 -0.34121243D-07 -0.71280897D-07
 -0.45421879D-07 -0.27205326D-06 -0.56833218D-06 -0.36215475D-06 -0.72502247D-05
  0.11698653D-06  0.93395252D-06  0.50246460D-05 -0.80927567D-07 -0.64742018D-06
 -0.14943173D-05  0.23944392D-07  0.19266688D-06  0.22029277D-05 -0.35841898D-07
 -0.28340802D-06  0.71477758D-04  0.53281646D-04  0.24698499D-04  0.57751063D-05
 -0.36615672D-04 -0.27294411D-04 -0.12652217D-04 -0.29583944D-05 -0.34862085D-04
 -0.25987235D-04 -0.12046281D-04 -0.28167119D-05 -0.35763248D-05 -0.26658988D-05
 -0.12357670D-05 -0.28895221D-06 -0.27761196D-04 -0.20694021D-04 -0.95926327D-05
 -0.22429895D-05  0.45809459D-06  0.34147732D-06  0.15829048D-06  0.37012142D-07
 -0.54400990D-05  0.27867804D-05  0.26533186D-05  0.27224141D-06  0.21128291D-05
 -0.34864836D-07  0.11730211D-05 -0.60089687D-06 -0.57212427D-06 -0.58776678D-07
 -0.45550627D-06  0.75198709D-08  0.12702090D+01  0.23719960D+01  0.40377963D+01
  0.62592608D+01  0.84287411D+01  0.63884591D+01  0.23318112D+01  0.54317550D+01
  0.13249329D+01  0.43928379D-01 -0.57173239D-02  0.69111560D-03 -0.22961864D-03
  0.15263408D-03  0.23292878D-04 -0.38277095D-06 -0.29926947D-05  0.93605366D-03
  0.11986769D-02  0.12825714D-02  0.10205587D-02  0.23488706D-03 -0.15382076D-04
 -0.19697736D-04 -0.21076367D-04 -0.16770739D-04 -0.38598754D-05 -0.12026594D-03
 -0.15400827D-03 -0.16478720D-03 -0.13112332D-03 -0.30178733D-04 -0.19543560D-03
  0.40611566D-04  0.32117451D-05 -0.66740142D-06  0.25110076D-04 -0.52178799D-05
 -0.69943261D-04  0.11493766D-05  0.89863152D-05  0.60465261D-05 -0.99405898D-07
 -0.77675562D-06 -0.19903745D-04  0.32707650D-06  0.25573098D-05 -0.15111448D-04
  0.77413190D-05  0.73701291D-05  0.75118350D-06  0.58743958D-05 -0.96549112D-07
MO    3     MO 0.0        OCC NO =    2.0000000  ORB. ENERGY =  -62.206787
  0.38943103D-06  0.72496201D-06  0.11925557D-05  0.16014021D-05  0.15077805D-05
  0.12390436D-06 -0.91315168D-06 -0.24264150D-05  0.32709769D-08  0.42914560D-04
  0.40157454D-04  0.31103501D-04 -0.70279392D-06 -0.65764195D-06 -0.50936911D-06
 -0.55153659D-05 -0.51610235D-05 -0.39974122D-05 -0.20747704D-05 -0.34690461D-04
  0.56585861D-06  0.44602966D-05  0.27251289D-04  0.38855656D-04 -0.64007689D-06
 -0.49918331D-05  0.73879976D-04  0.80119249D-05 -0.13206056D-06 -0.10296561D-05
 -0.59930776D-05  0.30695641D-05  0.29235136D-05  0.29332569D-06  0.23317523D-05
 -0.39942694D-07  0.29732061D-05  0.53632395D-05  0.79068288D-05 -0.26549949D-04
 -0.27703355D-04 -0.25105700D-04 -0.16902491D-04 -0.95686209D-05  0.18071758D-04
  0.29728092D-05  0.53625236D-05  0.79057733D-05 -0.26548418D-04 -0.27697795D-04
 -0.25109836D-04 -0.20982578D-04 -0.84026735D-05 -0.13871442D-04  0.29727799D-05
  0.53624709D-05  0.79056955D-05 -0.26546494D-04 -0.27694339D-04 -0.25109338D-04
 -0.18361954D-04  0.18888088D-04  0.30332106D-05 -0.12742147D+01 -0.23762710D+01
 -0.39989134D+01 -0.62963246D+01 -0.83517763D+01 -0.54407534D+01 -0.53839905D+01
 -0.90732797D+01 -0.19336770D+01  0.58198707D+01  0.24292515D+01  0.10304208D+00
 -0.10889540D-01  0.98165696D-03 -0.27048675D-03  0.33083551D-04 -0.49766339D-05
  0.81583661D-07  0.63955531D-06 -0.31433031D-02 -0.42039437D-02 -0.48558794D-02
  0.52121807D-04  0.69709200D-04  0.80519504D-04  0.40380290D-03  0.54005758D-03
  0.62380817D-03 -0.46109470D-02 -0.21748286D-02 -0.38435502D-03  0.76381919D-04
  0.36026782D-04  0.63669727D-05  0.59236879D-03  0.27940043D-03  0.49378124D-04
  0.19599902D-04  0.40945127D-04  0.26091207D-04 -0.31670273D-06 -0.66160706D-06
 -0.42159172D-06 -0.25212037D-05 -0.52669143D-05 -0.33562028D-05 -0.11347300D-03
  0.18540047D-05  0.14591326D-04  0.95833767D-04 -0.15668591D-05 -0.12322484D-04
 -0.43373321D-04  0.70909952D-06  0.55766618D-05  0.21975599D-04 -0.35931309D-06
 -0.28252841D-05 -0.30631289D-03 -0.22833473D-03 -0.10584367D-03 -0.24748811D-04
  0.15693302D-03  0.11698254D-03  0.54226798D-04  0.12679537D-04  0.14937987D-03
  0.11135220D-03  0.51616876D-04  0.12069274D-04  0.15242434D-04  0.11362163D-04
  0.52668864D-05  0.12315254D-05  0.11920073D-03  0.88855765D-04  0.41188743D-04
  0.96309242D-05 -0.19771150D-05 -0.14738003D-05 -0.68317436D-06 -0.15974269D-06
  0.36749975D-04 -0.18827615D-04 -0.17922361D-04 -0.18160942D-05 -0.14297735D-04
  0.23301249D-06 -0.90882765D-05  0.46560592D-05  0.44322173D-05  0.44906235D-06
  0.35357549D-05 -0.57550170D-07  0.18644234D-06  0.34816358D-06  0.59267114D-06
  0.91873958D-06  0.12371777D-05  0.93770341D-06 -0.19252563D-05 -0.44847200D-05
 -0.10939288D-05  0.10144588D-04 -0.10324740D-04  0.63104171D-05  0.90781269D-06
  0.30363324D-04  0.19716240D-05 -0.32337714D-07 -0.25331035D-06 -0.79047126D-05
 -0.10122493D-04 -0.10830959D-04 -0.86183346D-05 -0.19835559D-05  0.13352237D-06
  0.17098398D-06  0.18295102D-06  0.14557651D-06  0.33505213D-07  0.10098341D-05
  0.12931575D-05  0.13836646D-05  0.11009999D-05  0.25340103D-06  0.61966944D-05
 -0.12876746D-05 -0.10480320D-06  0.21778131D-07 -0.79144514D-06  0.16446249D-06
  0.17009624D-05 -0.28825926D-07 -0.21713174D-06  0.23172874D-05 -0.37663845D-07
 -0.29843543D-06  0.10944607D-04 -0.17961191D-06 -0.14060660D-05  0.85166326D-05
 -0.43629792D-05 -0.41536534D-05 -0.42285386D-06 -0.33100487D-05  0.54018350D-07
MO    4     MO 0.0        OCC NO =    2.0000000  ORB. ENERGY =  -56.024606
 -0.32498215D-05 -0.60498444D-05 -0.99519371D-05 -0.13363781D-04 -0.12582504D-04
 -0.10339881D-05  0.97074363D-05  0.25794476D-04 -0.34772756D-07 -0.78460478D-05
 -0.73419676D-05 -0.56866377D-05  0.12722025D-06  0.11904681D-06  0.92206357D-07
  0.10107639D-05  0.94582594D-06  0.73257875D-06 -0.26724484D-04 -0.18379631D-04
  0.30391724D-06  0.23603780D-05 -0.16873260D-04  0.10947067D-04 -0.17930932D-06
 -0.14045305D-05 -0.98824489D-04  0.37585645D-04 -0.61679883D-06 -0.48304278D-05
  0.27847982D-04 -0.14265499D-04 -0.13582482D-04 -0.13807586D-05 -0.10824536D-04
  0.17907603D-06 -0.65252562D-05 -0.11770631D-04 -0.17353013D-04  0.32499330D-04
 -0.98048532D-05  0.23308856D-05  0.85077085D-05  0.17553200D-04 -0.29661241D-04
 -0.65268137D-05 -0.11773441D-04 -0.17357155D-04  0.32507884D-04 -0.98049144D-05
  0.23314777D-05  0.15860543D-04  0.15472061D-04  0.27742381D-04 -0.65271401D-05
 -0.11774029D-04 -0.17358023D-04  0.32509547D-04 -0.98124095D-05  0.23399276D-05
  0.11147887D-04 -0.33598281D-04 -0.26505306D-05 -0.50033622D-04 -0.93307231D-04
 -0.15702230D-03 -0.24723300D-03 -0.32794286D-03 -0.21363794D-03 -0.22261420D-03
 -0.37515684D-03 -0.79952583D-04  0.29095859D-03  0.15943480D-04  0.84157194D-04
 -0.58308576D-04  0.31819383D-04 -0.20272866D-04 -0.25111110D-04 -0.41387781D-05
  0.65801027D-07  0.53175351D-06  0.86986294D+02  0.11633796D+03  0.13437932D+03
 -0.14013300D+01 -0.18741789D+01 -0.21648212D+01 -0.11180631D+02 -0.14953296D+02
 -0.17272211D+02  0.11184880D+03  0.52755318D+02  0.93233882D+01 -0.18018594D+01
 -0.84987647D+00 -0.15019771D+00 -0.14376290D+02 -0.67808124D+01 -0.11983654D+01
  0.99294470D-01  0.20743087D+00  0.13217987D+00 -0.15996233D-02 -0.33416891D-02
 -0.21294036D-02 -0.12762641D-01 -0.26661764D-01 -0.16989509D-01 -0.37115597D-01
  0.59796741D-03  0.47705911D-02  0.10360993D-01 -0.16694764D-03 -0.13317346D-02
 -0.10582921D-02  0.17061792D-04  0.13602694D-03  0.12092414D-03 -0.19531062D-05
 -0.15543318D-04 -0.83260582D-03 -0.62064913D-03 -0.28769948D-03 -0.67271096D-04
  0.42652540D-03  0.31794472D-03  0.14738203D-03  0.34461483D-04  0.40608041D-03
  0.30270441D-03  0.14031745D-03  0.32809613D-04  0.41029179D-04  0.30584370D-04
  0.14177265D-04  0.33149875D-05  0.32380865D-03  0.24137659D-03  0.11188918D-03
  0.26162396D-04 -0.52995134D-05 -0.39504149D-05 -0.18311994D-05 -0.42817870D-06
  0.32176758D-04 -0.16483522D-04 -0.15693236D-04 -0.15847467D-05 -0.12518207D-04
  0.20499443D-06 -0.71226916D-05  0.36488883D-05  0.34738034D-05  0.35085942D-06
  0.27712599D-05 -0.45302857D-07  0.13596685D-06  0.25390534D-06  0.43221743D-06
  0.67000945D-06  0.90223690D-06  0.68383921D-06 -0.15043912D-05 -0.35043507D-05
 -0.85479363D-06  0.83636440D-05 -0.91908889D-05  0.85550513D-05 -0.91513027D-05
  0.14800428D-03  0.15606155D-04 -0.25734683D-06 -0.20043968D-05 -0.67106942D-04
 -0.85934752D-04 -0.91949264D-04 -0.73165225D-04 -0.16839368D-04  0.10933679D-05
  0.14001278D-05  0.14981218D-05  0.11920750D-05  0.27436244D-06  0.86212756D-05
  0.11040097D-04  0.11812786D-04  0.93995874D-05  0.21633654D-05  0.50569240D-04
 -0.10508301D-04 -0.82349424D-06  0.17112231D-06 -0.64965739D-05  0.13499896D-05
  0.20173790D-04 -0.32909118D-06 -0.25918290D-05 -0.10165939D-04  0.16573468D-06
  0.13061325D-05  0.13353035D-04 -0.21846736D-06 -0.17161930D-05  0.18060835D-05
 -0.92516053D-06 -0.88092301D-06 -0.90118405D-07 -0.70208502D-06  0.11411798D-07
MO    5     MO 0.0        OCC NO =    2.0000000  ORB. ENERGY =  -56.024528
 -0.41920279D-09 -0.78038491D-09 -0.12837258D-08 -0.17238283D-08 -0.16230494D-08
 -0.13337677D-09  0.11873217D-08  0.31549361D-08 -0.42530743D-11  0.54824650D-06
  0.51302365D-06  0.39735665D-06 -0.48512640D-05 -0.45395878D-05 -0.35160863D-05
  0.49041448D-05  0.45890712D-05  0.35544130D-05 -0.21436925D-08 -0.98628789D-07
  0.84779150D-06 -0.85635651D-06 -0.92020594D-08  0.64856845D-06 -0.57173549D-05
  0.57788918D-05 -0.11021766D-07 -0.14199555D-06  0.12784980D-05 -0.12927760D-05
  0.50352326D-06 -0.35125807D-06 -0.15226519D-06 -0.45229449D-05  0.44358010D-05
 -0.56468608D-06  0.39676578D-06  0.71570886D-06  0.10551435D-05  0.27633542D-06
 -0.19007183D-04  0.20163337D-04 -0.10706926D-04 -0.57541917D-05  0.13489198D-04
 -0.12408715D-06 -0.22383551D-06 -0.32999254D-06 -0.77241142D-07  0.58715944D-05
 -0.62257326D-05  0.39823336D-05  0.70778897D-05  0.38257902D-06 -0.27651602D-06
 -0.49879545D-06 -0.73535597D-06 -0.17745530D-06  0.13141677D-04 -0.13937696D-04
  0.76302397D-05 -0.92013181D-05 -0.59107322D-05 -0.19273935D-07 -0.35943779D-07
 -0.60488077D-07 -0.95239013D-07 -0.12633004D-06 -0.82297532D-07 -0.83033060D-07
 -0.13993007D-06 -0.29821583D-07  0.10059409D-06  0.22640636D-07  0.12817130D-07
 -0.83848747D-08  0.42745414D-08 -0.24664631D-08 -0.10954823D-08 -0.65807964D-06
  0.57826343D-05 -0.58461464D-05  0.69993406D+01  0.93611188D+01  0.10812814D+02
 -0.61485892D+02 -0.82232995D+02 -0.94985454D+02  0.62161852D+02  0.83137044D+02
  0.96029700D+02  0.89999273D+01  0.42449629D+01  0.75020753D+00 -0.79060099D+02
 -0.37289989D+02 -0.65902179D+01  0.79929266D+02  0.37699946D+02  0.66626691D+01
  0.79851926D-02  0.16681447D-01  0.10629814D-01 -0.70146072D-01 -0.14653848D+00
 -0.93377796D-01  0.70917238D-01  0.14814948D+00  0.94404364D-01 -0.29707589D-02
  0.26096472D-01 -0.26383362D-01  0.82175733D-03 -0.72185641D-02  0.72979180D-02
 -0.80875261D-04  0.71038560D-03 -0.71819371D-03  0.80674591D-05 -0.70847721D-04
  0.71626022D-04 -0.61580167D-04 -0.45903687D-04 -0.21278475D-04 -0.49754221D-05
 -0.60085390D-05 -0.44789436D-05 -0.20761968D-05 -0.48546502D-06  0.67588706D-04
  0.50382631D-04  0.23354672D-04  0.54608871D-05  0.54402749D-03  0.40553426D-03
  0.18798382D-03  0.43955164D-04 -0.54055675D-03 -0.40294707D-03 -0.18678454D-03
 -0.43674743D-04 -0.53007565D-04 -0.39513415D-04 -0.18316289D-04 -0.42827913D-05
  0.59865159D-06 -0.11047801D-06 -0.48817358D-06 -0.53266202D-05  0.52658387D-05
  0.86929808D-07 -0.43070169D-07  0.45727732D-07 -0.26575630D-08  0.38996907D-06
 -0.37988354D-06  0.88484818D-07 -0.16099941D-10 -0.30065129D-10 -0.51179203D-10
 -0.79336341D-10 -0.10683458D-09 -0.80973933D-10  0.18058479D-09  0.42065684D-09
  0.10260810D-09 -0.96389621D-09  0.96645453D-09 -0.82344583D-09  0.10681692D-08
  0.12509892D-07 -0.71539413D-07  0.64085710D-06 -0.64806759D-06 -0.31318549D-05
 -0.40105415D-05 -0.42912364D-05 -0.34145926D-05 -0.78588678D-06  0.27646758D-04
  0.35403450D-04  0.37881312D-04  0.30142653D-04  0.69374929D-05 -0.27950708D-04
 -0.35792678D-04 -0.38297781D-04 -0.30474043D-04 -0.70137642D-05  0.25205368D-05
 -0.52376817D-06 -0.22253280D-04  0.46242371D-05  0.22497984D-04 -0.46750866D-05
  0.78832747D-06 -0.69564414D-05  0.70328642D-05 -0.40812364D-06  0.36024187D-05
 -0.36419906D-05  0.13730729D-06 -0.12006736D-05  0.12138088D-05 -0.22291006D-07
 -0.31685516D-06  0.33914617D-06  0.11764317D-06 -0.16006711D-06 -0.80983513D-06
MO    6     MO 0.0        OCC NO =    2.0000000  ORB. ENERGY =  -56.024528
  0.59926045D-09  0.11155790D-08  0.18351169D-08  0.24642540D-08  0.23201880D-08
  0.19066530D-09 -0.17941570D-08 -0.47674111D-08  0.64268032D-11  0.69984891D-06
  0.65488615D-06  0.50723464D-06  0.49360266D-05  0.46189047D-05  0.35775203D-05
  0.48025396D-05  0.44939938D-05  0.34807719D-05  0.52168169D-08 -0.11893644D-06
 -0.86390441D-06 -0.84068410D-06  0.21188968D-08  0.82038136D-06  0.58166823D-05
  0.56594402D-05  0.18501346D-07 -0.19118774D-06 -0.13004848D-05 -0.12645277D-05
  0.61267004D-06  0.46252855D-06 -0.10751986D-05  0.43416686D-05  0.40934683D-05
 -0.14781045D-05  0.89004782D-07  0.16055193D-06  0.23669586D-06  0.54809488D-07
 -0.41944506D-05  0.44507323D-05 -0.28807029D-05 -0.66359595D-05 -0.33679563D-06
 -0.38769652D-06 -0.69934921D-06 -0.10310251D-05 -0.26669721D-06  0.18564614D-04
 -0.19689739D-04  0.13509670D-04  0.42625655D-05  0.10749107D-04  0.30225257D-06
  0.54522051D-06  0.80379874D-06  0.19504828D-06 -0.14363621D-04  0.15237762D-04
 -0.95019114D-05  0.10386478D-04 -0.26151208D-05  0.14840918D-07  0.27676689D-07
  0.46575783D-07  0.73333983D-07  0.97274053D-07  0.63369050D-07  0.65020520D-07
  0.10957474D-06  0.23352323D-07 -0.84539930D-07 -0.80444553D-08 -0.18573505D-07
  0.12907472D-07 -0.68200823D-08  0.41830484D-08  0.48513566D-08 -0.83128547D-06
 -0.58817584D-05 -0.57241102D-05  0.88306130D+01  0.11810315D+02  0.13641825D+02
  0.62538971D+02  0.83641413D+02  0.96612285D+02  0.60864595D+02  0.81402055D+02
  0.94025654D+02  0.11354623D+02  0.53555938D+01  0.94648809D+00  0.80414174D+02
  0.37928661D+02  0.67030896D+01  0.78261220D+02  0.36913185D+02  0.65236257D+01
  0.10074381D-01  0.21045861D-01  0.13410922D-01  0.71347478D-01  0.14904827D+00
  0.94977096D-01  0.69437269D-01  0.14505776D+00  0.92434243D-01 -0.37479471D-02
 -0.26543438D-01 -0.25832782D-01  0.10367054D-02  0.73422022D-02  0.71456281D-02
 -0.10201564D-03 -0.72255354D-03 -0.70320893D-03  0.10171147D-04  0.72061447D-04
  0.70132352D-04 -0.77853279D-04 -0.58034149D-04 -0.26901503D-04 -0.62902220D-05
  0.53420096D-05  0.39820928D-05  0.18458836D-05  0.43161222D-06  0.72511269D-04
  0.54052056D-04  0.25055619D-04  0.58586098D-05 -0.54933782D-03 -0.40949274D-03
 -0.18981876D-03 -0.44384217D-04 -0.52541931D-03 -0.39166317D-03 -0.18155393D-03
 -0.42451700D-04  0.85666785D-04  0.63858569D-04  0.29601390D-04  0.69215209D-05
  0.74594371D-06  0.16406706D-06 -0.91001077D-06  0.52837441D-05  0.50279404D-05
 -0.11660732D-05 -0.50898616D-07 -0.59820642D-07  0.11071926D-06 -0.36580980D-06
 -0.34256157D-06  0.15738124D-06 -0.28641695D-10 -0.53485678D-10 -0.91047485D-10
 -0.14113886D-09 -0.19005805D-09 -0.14405213D-09  0.31717335D-09  0.73882820D-09
  0.18021759D-09 -0.17580121D-08  0.19197133D-08 -0.17689518D-08  0.18801580D-08
 -0.28315084D-07 -0.95203148D-07 -0.65185511D-06 -0.63400924D-06 -0.39647722D-05
 -0.50771456D-05 -0.54324913D-05 -0.43227040D-05 -0.99489348D-06 -0.28121768D-04
 -0.36011732D-04 -0.38532167D-04 -0.30660547D-04 -0.70566890D-05 -0.27367346D-04
 -0.35045645D-04 -0.37498464D-04 -0.29838016D-04 -0.68673791D-05  0.31919466D-05
 -0.66328729D-06  0.22635622D-04 -0.47036877D-05  0.22028304D-04 -0.45774869D-05
  0.99699420D-06  0.70759796D-05  0.68862079D-05 -0.51634271D-06 -0.36643508D-05
 -0.35660513D-05  0.17023670D-06  0.12212245D-05  0.11888010D-05 -0.40779713D-07
  0.40014610D-06 -0.35936639D-06 -0.29924942D-06 -0.33152369D-06 -0.58912030D-06
MO    7     MO 0.0        OCC NO =    2.0000000  ORB. ENERGY =  -10.089309
  0.43814488D+00  0.81564736D+00  0.13417322D+01  0.18017212D+01  0.16963884D+01
  0.13940353D+00  0.37087727D+00  0.98549035D+00 -0.13285098D-02 -0.32689418D-02
 -0.30589242D-02 -0.23692550D-02  0.53620787D-04  0.50175845D-04  0.38863131D-04
  0.42012532D-03  0.39313378D-03  0.30449731D-03  0.79230938D-02  0.16723669D-02
 -0.27483468D-04 -0.21493078D-03 -0.15038128D-02  0.60189749D-04 -0.98900274D-06
 -0.77337785D-05 -0.70707059D-03 -0.66204315D-04  0.10913500D-05  0.85104495D-05
 -0.11989054D-02  0.61423946D-03  0.58466593D-03  0.59521962D-04  0.46600504D-03
 -0.76463454D-05  0.56263152D-04  0.10149070D-03  0.14962404D-03 -0.12810083D-02
  0.72607060D-03  0.33813390D-04  0.78257711D-03 -0.12168313D-02  0.18434821D-02
  0.56261786D-04  0.10148824D-03  0.14962041D-03 -0.12810399D-02  0.72608684D-03
  0.33807403D-04  0.28296298D-03 -0.10749619D-02 -0.20630311D-02  0.56259800D-04
  0.10148465D-03  0.14961513D-03 -0.12810353D-02  0.72608025D-03  0.33781585D-04
  0.60353773D-03  0.22643850D-02  0.50570396D-05 -0.77982878D-07 -0.14542954D-06
 -0.24473645D-06 -0.38533971D-06 -0.51113486D-06 -0.33297811D-06  0.11112223D-05
  0.18726688D-05  0.39909896D-06 -0.10477549D-04  0.18496797D-04 -0.20812390D-04
  0.12708565D-04  0.96307333D-05  0.12067696D-04  0.96839850D-04 -0.16697379D-04
  0.27329194D-06  0.21466006D-05  0.16127111D-03  0.21568860D-03  0.24913698D-03
 -0.26310696D-05 -0.35188680D-05 -0.40645640D-05 -0.20738947D-04 -0.27736862D-04
 -0.32038216D-04  0.58339938D-03  0.27516986D-03  0.48630460D-04 -0.95174233D-05
 -0.44890484D-05 -0.79334448D-06 -0.75024150D-04 -0.35386368D-04 -0.62537930D-05
 -0.81903154D-04 -0.17109958D-03 -0.10902871D-03  0.13361634D-05  0.27913088D-05
  0.17786882D-05  0.10532605D-04  0.22003112D-04  0.14020905D-04  0.35316791D-03
 -0.57624382D-05 -0.45415961D-04 -0.29062356D-03  0.47428093D-05  0.37372185D-04
  0.93517980D-04 -0.15256070D-05 -0.12026573D-04 -0.23042472D-04  0.37413829D-06
  0.29651882D-05 -0.11473393D-02 -0.85526086D-03 -0.39645283D-03 -0.92700260D-04
  0.58771591D-03  0.43810091D-03  0.20307997D-03  0.47485008D-04  0.55962344D-03
  0.41715995D-03  0.19337286D-03  0.45215252D-04  0.56966706D-04  0.42464676D-04
  0.19684335D-04  0.46026735D-05  0.44594969D-03  0.33242416D-03  0.15409392D-03
  0.36030885D-04 -0.74189220D-05 -0.55302850D-05 -0.25635420D-05 -0.59941812D-06
  0.11140312D-03 -0.57065460D-04 -0.54337659D-04 -0.55315477D-05 -0.43300235D-04
  0.72024317D-06 -0.35984762D-04  0.18433027D-04  0.17551735D-04  0.17871740D-05
  0.13986485D-04 -0.23249821D-06 -0.11517737D-04 -0.21508294D-04 -0.36613091D-04
 -0.56756427D-04 -0.76428389D-04 -0.57927944D-04 -0.50605717D-04 -0.11788169D-03
 -0.28754119D-04  0.14823771D-03 -0.10421889D-03 -0.11030660D-04  0.22410042D-03
  0.10155168D-03  0.90217406D-05 -0.14746413D-06 -0.11615188D-05 -0.15151442D-02
 -0.19402395D-02 -0.20760355D-02 -0.16519284D-02 -0.38020018D-03  0.24893105D-04
  0.31877221D-04  0.34108285D-04  0.27140406D-04  0.62465097D-05  0.19467883D-03
  0.24929876D-03  0.26674700D-03  0.21225406D-03  0.48851408D-04  0.83590739D-03
 -0.17370176D-03 -0.13733997D-04  0.28539279D-05 -0.10740453D-03  0.22318688D-04
  0.24142562D-03 -0.39676052D-05 -0.31020417D-04  0.12987988D-03 -0.21316708D-05
 -0.16688514D-04  0.77401719D-04 -0.12728547D-05 -0.99436813D-05  0.21740077D-03