 Single Point Energy
GAUSSIAN             31 MOL ORBITALS    210 PRIMITIVES        6 NUCLEI   B3LYP
  C    1    (CENTRE  1)  -0.82888685  0.01878087  0.12425740  CHARGE =  6.0
  H    2    (CENTRE  2)  -1.07425467 -1.02334019  1.85736446  CHARGE =  1.0
  H    3    (CENTRE  3)  -1.57937235 -0.89694289 -1.53347513  CHARGE =  1.0
  H    4    (CENTRE  4)  -1.24593459  2.00810668  0.26053602  CHARGE =  1.0
  Br   5    (CENTRE  5)   3.17485434 -0.07045050 -0.47549354  CHARGE = 35.0
  Cl   6    (CENTRE  6)  -6.01453054  0.13325051  0.90072378  CHARGE = 17.0
CENTRE ASSIGNMENTS    1  1  1  1  1  1  1  1  1  1  1  1  1  1  1  1  1  1  1  1
CENTRE ASSIGNMENTS    1  1  1  1  1  1  1  1  1  1  1  1  1  1  1  1  2  2  2  2
CENTRE ASSIGNMENTS    2  2  2  2  2  3  3  3  3  3  3  3  3  3  4  4  4  4  4  4
CENTRE ASSIGNMENTS    4  4  4  5  5  5  5  5  5  5  5  5  5  5  5  5  5  5  5  5
CENTRE ASSIGNMENTS    5  5  5  5  5  5  5  5  5  5  5  5  5  5  5  5  5  5  5  5
CENTRE ASSIGNMENTS    5  5  5  5  5  5  5  5  5  5  5  5  5  5  5  5  5  5  5  5
CENTRE ASSIGNMENTS    5  5  5  5  5  5  5  5  5  5  5  5  5  5  5  5  5  5  5  5
CENTRE ASSIGNMENTS    5  5  5  5  5  5  5  5  5  5  5  5  5  5  5  5  5  6  6  6
CENTRE ASSIGNMENTS    6  6  6  6  6  6  6  6  6  6  6  6  6  6  6  6  6  6  6  6
CENTRE ASSIGNMENTS    6  6  6  6  6  6  6  6  6  6  6  6  6  6  6  6  6  6  6  6
CENTRE ASSIGNMENTS    6  6  6  6  6  6  6  6  6  6
TYPE ASSIGNMENTS      1  1  1  1  1  1  1  1  1  2  2  2  3  3  3  4  4  4  1  2
TYPE ASSIGNMENTS      3  4  1  2  3  4  1  2  3  4  5  6  7  8  9 10  1  1  1  1
TYPE ASSIGNMENTS      1  1  2  3  4  1  1  1  1  1  1  2  3  4  1  1  1  1  1  1
TYPE ASSIGNMENTS      2  3  4  1  1  1  1  1  1  1  1  1  1  1  1  1  1  1  1  2
TYPE ASSIGNMENTS      3  4  2  2  2  3  3  3  4  4  4  2  2  2  3  3  3  4  4  4
TYPE ASSIGNMENTS      2  2  2  3  3  3  4  4  4  2  3  4  2  3  4  2  3  4  2  3
TYPE ASSIGNMENTS      4  5  5  5  5  6  6  6  6  7  7  7  7  8  8  8  8  9  9  9
TYPE ASSIGNMENTS      9 10 10 10 10  5  6  7  8  9 10  5  6  7  8  9 10  1  1  1
TYPE ASSIGNMENTS      1  1  1  1  1  1  1  1  1  1  1  2  3  4  2  2  2  2  2  3
TYPE ASSIGNMENTS      3  3  3  3  4  4  4  4  4  2  2  3  3  4  4  2  3  4  2  3
TYPE ASSIGNMENTS      4  2  3  4  5  6  7  8  9 10
EXPONENTS  0.4563240D+04 0.6820240D+03 0.1549730D+03 0.4445530D+02 0.1302900D+02
EXPONENTS  0.1827730D+01 0.2096420D+02 0.4803310D+01 0.1459330D+01 0.2096420D+02
EXPONENTS  0.4803310D+01 0.1459330D+01 0.2096420D+02 0.4803310D+01 0.1459330D+01
EXPONENTS  0.2096420D+02 0.4803310D+01 0.1459330D+01 0.4834560D+00 0.4834560D+00
EXPONENTS  0.4834560D+00 0.4834560D+00 0.1455850D+00 0.1455850D+00 0.1455850D+00
EXPONENTS  0.1455850D+00 0.4380000D-01 0.4380000D-01 0.4380000D-01 0.4380000D-01
EXPONENTS  0.6260000D+00 0.6260000D+00 0.6260000D+00 0.6260000D+00 0.6260000D+00
EXPONENTS  0.6260000D+00 0.3386500D+02 0.5094790D+01 0.1158790D+01 0.3258400D+00
EXPONENTS  0.1027410D+00 0.3600000D-01 0.7500000D+00 0.7500000D+00 0.7500000D+00
EXPONENTS  0.3386500D+02 0.5094790D+01 0.1158790D+01 0.3258400D+00 0.1027410D+00
EXPONENTS  0.3600000D-01 0.7500000D+00 0.7500000D+00 0.7500000D+00 0.3386500D+02
EXPONENTS  0.5094790D+01 0.1158790D+01 0.3258400D+00 0.1027410D+00 0.3600000D-01
EXPONENTS  0.7500000D+00 0.7500000D+00 0.7500000D+00 0.4397000D+06 0.6603000D+05
EXPONENTS  0.1514000D+05 0.4317000D+04 0.1414000D+04 0.5239000D+03 0.5239000D+03
EXPONENTS  0.2077000D+03 0.8654000D+02 0.3052000D+02 0.1298000D+02 0.4412000D+01
EXPONENTS  0.1862000D+01 0.3932000D+00 0.1400000D+00 0.3500000D-01 0.3500000D-01
EXPONENTS  0.3500000D-01 0.3500000D-01 0.2957000D+04 0.7003000D+03 0.2246000D+03
EXPONENTS  0.2957000D+04 0.7003000D+03 0.2246000D+03 0.2957000D+04 0.7003000D+03
EXPONENTS  0.2246000D+03 0.8259000D+02 0.3319000D+02 0.1420000D+02 0.8259000D+02
EXPONENTS  0.3319000D+02 0.1420000D+02 0.8259000D+02 0.3319000D+02 0.1420000D+02
EXPONENTS  0.1420000D+02 0.7438000D+01 0.3526000D+01 0.1420000D+02 0.7438000D+01
EXPONENTS  0.3526000D+01 0.1420000D+02 0.7438000D+01 0.3526000D+01 0.1595000D+01
EXPONENTS  0.1595000D+01 0.1595000D+01 0.8462000D+00 0.8462000D+00 0.8462000D+00
EXPONENTS  0.3186000D+00 0.3186000D+00 0.3186000D+00 0.1096000D+00 0.1096000D+00
EXPONENTS  0.1096000D+00 0.1348000D+03 0.3639000D+02 0.1216000D+02 0.4341000D+01
EXPONENTS  0.1348000D+03 0.3639000D+02 0.1216000D+02 0.4341000D+01 0.1348000D+03
EXPONENTS  0.3639000D+02 0.1216000D+02 0.4341000D+01 0.1348000D+03 0.3639000D+02
EXPONENTS  0.1216000D+02 0.4341000D+01 0.1348000D+03 0.3639000D+02 0.1216000D+02
EXPONENTS  0.4341000D+01 0.1348000D+03 0.3639000D+02 0.1216000D+02 0.4341000D+01
EXPONENTS  0.1535000D+01 0.1535000D+01 0.1535000D+01 0.1535000D+01 0.1535000D+01
EXPONENTS  0.1535000D+01 0.4510000D+00 0.4510000D+00 0.4510000D+00 0.4510000D+00
EXPONENTS  0.4510000D+00 0.4510000D+00 0.1058190D+06 0.1587200D+05 0.3619650D+04
EXPONENTS  0.1030800D+04 0.3399080D+03 0.1245380D+03 0.1245380D+03 0.4951350D+02
EXPONENTS  0.2080560D+02 0.6583460D+01 0.2564680D+01 0.5597630D+00 0.1832730D+00
EXPONENTS  0.4830000D-01 0.4830000D-01 0.4830000D-01 0.4830000D-01 0.5897760D+03
EXPONENTS  0.1398490D+03 0.4514130D+02 0.1687330D+02 0.2771520D+01 0.5897760D+03
EXPONENTS  0.1398490D+03 0.4514130D+02 0.1687330D+02 0.2771520D+01 0.5897760D+03
EXPONENTS  0.1398490D+03 0.4514130D+02 0.1687330D+02 0.2771520D+01 0.6741100D+01
EXPONENTS  0.2771520D+01 0.6741100D+01 0.2771520D+01 0.6741100D+01 0.2771520D+01
EXPONENTS  0.1023870D+01 0.1023870D+01 0.1023870D+01 0.3813680D+00 0.3813680D+00
EXPONENTS  0.3813680D+00 0.1094370D+00 0.1094370D+00 0.1094370D+00 0.7500000D+00
EXPONENTS  0.7500000D+00 0.7500000D+00 0.7500000D+00 0.7500000D+00 0.7500000D+00
MO    1     MO 0.0        OCC NO =    2.0000000  ORB. ENERGY = -482.670339
  0.10798572D-06  0.20102545D-06  0.33068497D-06  0.44405442D-06  0.41809397D-06
  0.34357565D-07 -0.23747704D-06 -0.63102095D-06  0.85066033D-09  0.13530862D-05
  0.12661553D-05  0.98068623D-06 -0.30517778D-07 -0.28557121D-07 -0.22118594D-07
 -0.20277648D-06 -0.18974882D-06 -0.14696780D-06 -0.80734921D-06  0.62717822D-06
 -0.13640039D-07 -0.93882653D-07  0.49048449D-05  0.14141901D-05 -0.31718873D-07
 -0.21190327D-06  0.65130852D-05  0.34437907D-05 -0.76487258D-07 -0.51579077D-06
 -0.59716138D-06  0.30868327D-06  0.28847811D-06  0.40361339D-07  0.27142531D-06
 -0.60678953D-08 -0.15625615D-06 -0.28186380D-06 -0.41554154D-06 -0.65380697D-06
 -0.14656547D-05 -0.33233713D-06 -0.59754515D-07 -0.24898540D-06  0.41488489D-06
 -0.15624868D-06 -0.28185033D-06 -0.41552168D-06 -0.65381694D-06 -0.14658060D-05
 -0.33244159D-06 -0.18033015D-06 -0.21884487D-06 -0.39656933D-06 -0.15627642D-06
 -0.28190037D-06 -0.41559544D-06 -0.65389432D-06 -0.14651976D-05 -0.33202469D-06
 -0.10183903D-06  0.47588558D-06  0.32990197D-07  0.38584363D+01  0.71955615D+01
  0.12109068D+02  0.19065835D+02  0.25289927D+02  0.16475089D+02  0.96359550D+01
  0.16238832D+02  0.34607833D+01  0.81729246D-01 -0.11318223D-01  0.24929171D-02
 -0.64776326D-03  0.74651410D-04 -0.25902525D-04 -0.50682879D-05  0.55758586D-06
 -0.12510062D-07 -0.83550033D-07 -0.18974141D-02 -0.25376560D-02 -0.29311885D-02
  0.42364531D-04  0.56659538D-04  0.65446138D-04  0.28423970D-03  0.38015033D-03
  0.43910295D-03 -0.21430752D-03 -0.10108165D-03 -0.17864046D-04  0.47889781D-05
  0.22587998D-05  0.39919516D-06  0.32106040D-04  0.15143339D-04  0.26762653D-05
  0.55465946D-05  0.11587100D-04  0.73835749D-05 -0.12424743D-06 -0.25955878D-06
 -0.16539701D-06 -0.83105248D-06 -0.17361081D-05 -0.11062893D-05 -0.13295151D-04
  0.29825193D-06  0.19921732D-05  0.95309774D-05 -0.21383102D-06 -0.14281493D-05
 -0.42401963D-05  0.95001147D-07  0.63532295D-06  0.36724017D-05 -0.82036980D-07
 -0.55017393D-06 -0.56602943D-04 -0.42193517D-04 -0.19558640D-04 -0.45732830D-05
  0.29242355D-04  0.21798121D-04  0.10104434D-04  0.23626610D-05  0.27360588D-04
  0.20395396D-04  0.94542060D-05  0.22106220D-05  0.38475133D-05  0.28680508D-05
  0.13294737D-05  0.31086312D-06  0.25738416D-04  0.19186181D-04  0.88936791D-05
  0.20795573D-05 -0.57596209D-06 -0.42933927D-06 -0.19901854D-06 -0.46535348D-07
  0.72838363D-05 -0.37630684D-05 -0.35207679D-05 -0.49423545D-06 -0.33117947D-05
  0.74003998D-07 -0.20701291D-05  0.10695016D-05  0.10006275D-05  0.14039632D-06
  0.94121734D-06 -0.21023493D-07  0.15921423D-06  0.29731764D-06  0.50611723D-06
  0.78456651D-06  0.10564998D-05  0.80076086D-06 -0.57954033D-06 -0.13499897D-05
 -0.32929425D-06  0.21571963D-05 -0.20588063D-05  0.15798781D-05 -0.20166034D-05
  0.58882231D-05  0.89784211D-06 -0.19684566D-07 -0.13439703D-06 -0.10798954D-04
 -0.13828754D-04 -0.14796619D-04 -0.11773862D-04 -0.27098174D-05  0.23759385D-06
  0.30425420D-06  0.32554873D-06  0.25904336D-06  0.59620216D-07  0.16167390D-05
  0.20703382D-05  0.22152397D-05  0.17626950D-05  0.40569370D-06  0.94720985D-05
 -0.19683044D-05 -0.20838067D-06  0.43301555D-07 -0.14180859D-05  0.29467859D-06
  0.25343277D-05 -0.55783041D-07 -0.37942804D-06 -0.13859265D-05  0.30541633D-07
  0.20750563D-06  0.88035553D-06 -0.19490207D-07 -0.13183673D-06  0.71589825D-06
 -0.36990540D-06 -0.34599285D-06 -0.47633209D-07 -0.32519492D-06  0.71477883D-08
MO    2     MO 0.0        OCC NO =    2.0000000  ORB. ENERGY = -101.269447
  0.23542795D-07  0.43827098D-07  0.72095164D-07  0.96811706D-07  0.91151870D-07
  0.74905560D-08  0.49592993D-07  0.13177787D-06 -0.17764577D-09 -0.14575561D-04
 -0.13639134D-04 -0.10564037D-04  0.32160209D-06  0.30094032D-06  0.23308991D-06
  0.21824260D-05  0.20422130D-05  0.15817729D-05 -0.55253359D-05  0.16018463D-04
 -0.34909257D-06 -0.23971437D-05  0.21835016D-04 -0.21344658D-04  0.47491373D-06
  0.31971674D-05 -0.76853315D-05  0.76113735D-05 -0.16828856D-06 -0.11397685D-05
 -0.20923169D-05  0.10829658D-05  0.10093511D-05  0.14076117D-06  0.95033981D-06
 -0.21827500D-07  0.27506201D-05  0.49617263D-05  0.73148924D-05 -0.25267207D-04
  0.26437673D-05 -0.56986412D-05  0.12840125D-04 -0.67125990D-05  0.84824007D-05
  0.27502063D-05  0.49609797D-05  0.73137918D-05 -0.25266011D-04  0.26454822D-05
 -0.57007316D-05  0.97393330D-05 -0.59348656D-05 -0.12313232D-04  0.27517358D-05
  0.49637388D-05  0.73178594D-05 -0.25270639D-04  0.26390105D-05 -0.56929127D-05
  0.11795355D-04  0.11896692D-04 -0.13137462D-05  0.80981141D-07  0.15102097D-06
  0.25414601D-06  0.40015514D-06  0.53078683D-06  0.34578036D-06 -0.27950728D-05
 -0.47103495D-05 -0.10038591D-05  0.17013933D-04 -0.24011226D-04  0.22796389D-04
 -0.15724763D-04  0.80529939D-05 -0.46588765D-05 -0.45155823D-07 -0.42870500D-06
  0.90468690D-08  0.64066232D-07  0.64943047D-05  0.86856693D-05  0.10032618D-04
 -0.14486787D-06 -0.19375044D-06 -0.22379671D-06 -0.97282928D-06 -0.13010898D-05
 -0.15028591D-05 -0.19692292D-04 -0.92881916D-05 -0.16414917D-05  0.43931270D-06
  0.20720902D-06  0.36619818D-07  0.29498565D-05  0.13913481D-05  0.24589139D-06
  0.24316573D-05  0.50798477D-05  0.32369995D-05 -0.54250587D-07 -0.11333206D-06
 -0.72217874D-07 -0.36425728D-06 -0.76095077D-06 -0.48489589D-06 -0.91290325D-05
  0.20372597D-06  0.13675287D-05  0.75074387D-05 -0.16759055D-06 -0.11246329D-05
 -0.40242461D-05  0.89846780D-07  0.60285283D-06 -0.26576162D-05  0.59071089D-07
  0.39806157D-06  0.19120408D-03  0.14252920D-03  0.66068856D-04  0.15448496D-04
 -0.98783748D-04 -0.73636343D-04 -0.34133839D-04 -0.79813171D-05 -0.92420330D-04
 -0.68892862D-04 -0.31935017D-04 -0.74671793D-05 -0.12934189D-04 -0.96415287D-05
 -0.44692929D-05 -0.10450288D-05 -0.86923663D-04 -0.64795482D-04 -0.30035693D-04
 -0.70230714D-05  0.19368039D-05  0.14437512D-05  0.66924524D-06  0.15648572D-06
 -0.15519597D-04  0.80180498D-05  0.75015469D-05  0.10498903D-05  0.70554089D-05
 -0.15721424D-06  0.49361853D-05 -0.25502369D-05 -0.23859485D-05 -0.33398058D-06
 -0.22440655D-05  0.50014524D-07  0.12702094D+01  0.23719968D+01  0.40377976D+01
  0.62592629D+01  0.84287438D+01  0.63884612D+01  0.23318224D+01  0.54317810D+01
  0.13249392D+01  0.43869023D-01 -0.56610977D-02  0.64647880D-03 -0.17581431D-03
  0.45191947D-04  0.92595987D-05 -0.20481986D-06 -0.13866029D-05  0.13535193D-03
  0.17332684D-03  0.18545786D-03  0.14757124D-03  0.33964310D-04 -0.29672148D-05
 -0.37997093D-05 -0.40656482D-05 -0.32350892D-05 -0.74457309D-06 -0.20258778D-04
 -0.25942667D-04 -0.27758376D-04 -0.22087701D-04 -0.50836026D-05 -0.50497486D-04
  0.10493390D-04  0.11086764D-05 -0.23038323D-06  0.75576297D-05 -0.15704773D-05
 -0.19896216D-04  0.43756187D-06  0.29783865D-05  0.12913264D-04 -0.28474508D-06
 -0.19334041D-05 -0.12808611D-04  0.28290794D-06  0.19179262D-05 -0.87997357D-05
  0.45462233D-05  0.42535125D-05  0.58863667D-06  0.39983906D-05 -0.88085894D-07
MO    3     MO 0.0        OCC NO =    2.0000000  ORB. ENERGY =  -62.323286
  0.11773588D-05  0.21917627D-05  0.36054291D-05  0.48414862D-05  0.45584417D-05
  0.37459750D-06 -0.29272983D-05 -0.77783798D-05  0.10485799D-07  0.19714780D-04
  0.18448176D-04  0.14288826D-04 -0.44430998D-06 -0.41576467D-06 -0.32202581D-06
 -0.29544114D-05 -0.27646011D-05 -0.21412904D-05 -0.10864373D-04  0.79962955D-05
 -0.17359018D-06 -0.11969166D-05  0.68422749D-04  0.19628011D-04 -0.44028894D-06
 -0.29410901D-05  0.92779902D-04  0.48786084D-04 -0.10835501D-05 -0.73068930D-05
 -0.94665271D-05  0.48930301D-05  0.45734969D-05  0.63983666D-06  0.43028821D-05
 -0.96120412D-07 -0.22262312D-05 -0.40158035D-05 -0.59203529D-05 -0.90679263D-05
 -0.20881797D-04 -0.48220915D-05 -0.69210499D-06 -0.35894699D-05  0.59493310D-05
 -0.22261302D-05 -0.40156213D-05 -0.59200843D-05 -0.90680869D-05 -0.20883925D-04
 -0.48235830D-05 -0.24286182D-05 -0.31553884D-05 -0.57360403D-05 -0.22265060D-05
 -0.40162991D-05 -0.59210836D-05 -0.90690853D-05 -0.20875373D-04 -0.48176047D-05
 -0.12976601D-05  0.68492604D-05  0.44973477D-06 -0.12742138D+01 -0.23762693D+01
 -0.39989106D+01 -0.62963201D+01 -0.83517703D+01 -0.54407495D+01 -0.53840065D+01
 -0.90733068D+01 -0.19336827D+01  0.58199985D+01  0.24290532D+01  0.10323992D+00
 -0.11030395D-01  0.10785220D-02 -0.36940997D-03 -0.71647854D-04  0.79473090D-05
 -0.17830656D-06 -0.11908431D-05 -0.46026283D-01 -0.61556871D-01 -0.71102935D-01
  0.10276855D-02  0.13744560D-02  0.15876028D-02  0.68951154D-02  0.92217251D-02
  0.10651804D-01 -0.63918667D-01 -0.30148285D-01 -0.53280726D-02  0.14272410D-02
  0.67318157D-03  0.11897062D-03  0.95755559D-02  0.45164676D-02  0.79819024D-03
 -0.12422680D-03 -0.25951570D-03 -0.16536956D-03  0.27687398D-05  0.57840289D-05
  0.36857205D-05  0.18608506D-04  0.38874053D-04  0.24771469D-04 -0.46463091D-04
  0.10544144D-05  0.69673714D-05  0.87982537D-04 -0.19774780D-05 -0.13185445D-04
 -0.54889714D-04  0.12299555D-05  0.82244777D-05  0.51149738D-04 -0.11426132D-05
 -0.76629126D-05  0.52704816D-02  0.39287736D-02  0.18211677D-02  0.42583305D-03
 -0.27230039D-02 -0.20298080D-02 -0.94090958D-03 -0.22000742D-03 -0.25474777D-02
 -0.18989656D-02 -0.88025809D-03 -0.20582563D-03 -0.35651681D-03 -0.26575823D-03
 -0.12319119D-03 -0.28805080D-04 -0.23959704D-02 -0.17860276D-02 -0.82790611D-03
 -0.19358447D-03  0.53387176D-04  0.39796388D-04  0.18447460D-04  0.43134624D-05
  0.51091060D-04 -0.26394565D-04 -0.24696496D-04 -0.34744377D-05 -0.23233192D-04
  0.52041303D-06 -0.25845077D-04  0.13352437D-04  0.12492640D-04  0.17532124D-05
  0.11751043D-04 -0.26253895D-06  0.48168610D-06  0.89950359D-06  0.15312050D-05
  0.23736244D-05  0.31963303D-05  0.24226187D-05 -0.49233503D-05 -0.11468524D-04
 -0.27974428D-05  0.26101706D-04 -0.26966046D-04  0.22089298D-04 -0.28622269D-04
  0.83468949D-04  0.12751628D-04 -0.27957672D-06 -0.19087793D-05 -0.12462497D-03
 -0.15959029D-03 -0.17075989D-03 -0.13587587D-03 -0.31272559D-04  0.27422630D-05
  0.35116440D-05  0.37574214D-05  0.29898291D-05  0.68812517D-06  0.18658052D-04
  0.23892835D-04  0.25565077D-04  0.20342464D-04  0.46819271D-05  0.10030264D-03
 -0.20842913D-04 -0.22068421D-05  0.45858232D-06 -0.15016601D-04  0.31204533D-05
  0.32583312D-04 -0.71728258D-06 -0.48782594D-05 -0.19047336D-04  0.41979089D-06
  0.28518476D-05  0.12350074D-04 -0.27344075D-06 -0.18494800D-05  0.99245429D-05
 -0.51280238D-05 -0.47965192D-05 -0.66036516D-06 -0.45082054D-05  0.99094193D-07
MO    4     MO 0.0        OCC NO =    2.0000000  ORB. ENERGY =  -56.142942
 -0.28159119D-05 -0.52420813D-05 -0.86231745D-05 -0.11579476D-04 -0.10902513D-04
 -0.89593209D-06  0.93101219D-05  0.24738737D-04 -0.33349546D-07  0.16135794D-03
  0.15099128D-03  0.11694858D-03 -0.35984227D-05 -0.33672371D-05 -0.26080553D-05
 -0.24171462D-04 -0.22618533D-04 -0.17518928D-04  0.48076057D-04 -0.88958938D-04
  0.19845968D-05  0.13326226D-04 -0.72341357D-04 -0.28713802D-04  0.63928942D-06
  0.43009691D-05  0.25088318D-04  0.33196256D-04 -0.73842435D-06 -0.49722951D-05
 -0.10295933D-03  0.53194227D-04  0.49765106D-04  0.69647421D-05  0.46806160D-04
 -0.10432268D-05 -0.82551307D-05 -0.14891078D-04 -0.21953374D-04  0.32249335D-04
  0.10401432D-04  0.11846608D-04  0.62123867D-04 -0.56298108D-05 -0.24307979D-05
 -0.82551920D-05 -0.14891189D-04 -0.21953537D-04  0.32249593D-04  0.10400843D-04
  0.11846685D-04  0.60077232D-04 -0.51179243D-05 -0.16173960D-04 -0.82552451D-05
 -0.14891284D-04 -0.21953678D-04  0.32247168D-04  0.10403451D-04  0.11846298D-04
  0.61426060D-04  0.66558945D-05 -0.89021272D-05 -0.73564419D-03 -0.13718959D-02
 -0.23086984D-02 -0.36350661D-02 -0.48217429D-02 -0.31411179D-02 -0.31460609D-02
 -0.53018464D-02 -0.11299176D-02  0.35352574D-02  0.13087722D-02  0.12454059D-03
 -0.56589564D-04 -0.77112297D-06  0.12214364D-04 -0.80544338D-04  0.33809489D-05
 -0.75546633D-07 -0.50653120D-06  0.86721252D+02  0.11598349D+03  0.13396988D+03
 -0.19340845D+01 -0.25867001D+01 -0.29878381D+01 -0.12990922D+02 -0.17374431D+02
 -0.20068808D+02  0.11150954D+03  0.52595301D+02  0.92951084D+01 -0.24869208D+01
 -0.11729969D+01 -0.20730242D+00 -0.16704230D+02 -0.78788233D+01 -0.13924156D+01
  0.99207150D-01  0.20724845D+00  0.13206363D+00 -0.22125488D-02 -0.46221196D-02
 -0.29453243D-02 -0.14861320D-01 -0.31046004D-01 -0.19783250D-01 -0.37491726D-01
  0.83615071D-03  0.56162932D-02  0.10670053D-01 -0.23796532D-03 -0.15983831D-02
 -0.11455316D-02  0.25547750D-04  0.17160172D-03  0.11283451D-03 -0.25170486D-05
 -0.16902893D-04 -0.40974525D-02 -0.30543629D-02 -0.14158380D-02 -0.33105717D-03
  0.21169493D-02  0.15780369D-02  0.73149285D-03  0.17104072D-03  0.19805033D-02
  0.14763260D-02  0.68434516D-03  0.16001645D-03  0.27783609D-03  0.20710728D-03
  0.96003772D-04  0.22448004D-04  0.18628667D-02  0.13886362D-02  0.64369689D-03
  0.15051190D-03 -0.41592944D-04 -0.31004617D-04 -0.14372069D-04 -0.33605374D-05
 -0.14091178D-03  0.72801748D-04  0.68110034D-04  0.95196573D-05  0.64057384D-04
 -0.14264003D-05  0.50587558D-04 -0.26135962D-04 -0.24451596D-04 -0.34199968D-05
 -0.22997030D-04  0.51232575D-06  0.13097069D-06  0.24457547D-06  0.41633540D-06
  0.64538963D-06  0.86908379D-06  0.65871121D-06 -0.14532336D-05 -0.33851835D-05
 -0.82572593D-06  0.78858800D-05 -0.81996885D-05  0.60363077D-05 -0.25065892D-05
  0.33154236D-04  0.54124264D-05 -0.11800782D-06 -0.80998378D-06 -0.17297530D-04
 -0.22150599D-04 -0.23700904D-04 -0.18859117D-04 -0.43405269D-05  0.37279962D-06
  0.47739387D-06  0.51080632D-06  0.40645524D-06  0.93547849D-07  0.25871548D-05
  0.33130180D-05  0.35448938D-05  0.28207181D-05  0.64920338D-06  0.14739557D-04
 -0.30628836D-05 -0.31809998D-06  0.66101253D-07 -0.22047043D-05  0.45813810D-06
  0.30276297D-05 -0.64533063D-07 -0.45260432D-06  0.81755807D-06 -0.19311680D-07
 -0.12282403D-06 -0.93508913D-06  0.21020497D-07  0.14014435D-06 -0.69119473D-05
  0.35712992D-05  0.33406481D-05  0.46749600D-06  0.31421906D-05 -0.70129365D-07
MO    5     MO 0.0        OCC NO =    2.0000000  ORB. ENERGY =  -56.140068
 -0.12431155D-09 -0.23141749D-09 -0.38067959D-09 -0.51118880D-09 -0.48130352D-09
 -0.39551914D-10  0.41582794D-09  0.11049327D-08 -0.14895265D-11  0.32474760D-05
  0.30388374D-05  0.23536970D-05 -0.36264719D-04 -0.33934842D-04 -0.26283847D-04
  0.27053030D-04  0.25314971D-04  0.19607423D-04 -0.39282307D-09 -0.32477946D-05
  0.36281538D-04 -0.27065875D-04  0.66483994D-09 -0.77988695D-06  0.87081099D-05
 -0.64969391D-05  0.13756693D-07  0.49017568D-06 -0.55480578D-05  0.41401818D-05
 -0.22798792D-05  0.20952700D-04 -0.18672821D-04  0.28734620D-04 -0.21396939D-04
  0.36840977D-04  0.16894057D-05  0.30474469D-05  0.44927400D-05  0.26921022D-04
  0.97823276D-05 -0.32350076D-04  0.40423282D-04  0.14494661D-04 -0.37783607D-04
 -0.28401856D-06 -0.51232896D-06 -0.75530792D-06 -0.45144135D-05 -0.16483808D-05
  0.54257318D-05 -0.78387910D-05 -0.11227876D-04  0.58994059D-06 -0.14061315D-05
 -0.25364606D-05 -0.37394114D-05 -0.22400419D-04 -0.81484138D-05  0.26911854D-04
 -0.35516790D-04  0.29545502D-04  0.12713489D-04  0.11798123D-07  0.22002209D-07
  0.37026470D-07  0.58298506D-07  0.77330205D-07  0.50376658D-07  0.51510750D-07
  0.86807628D-07  0.18500247D-07 -0.62294435D-07 -0.13103616D-07 -0.98441418D-08
  0.66385743D-08 -0.52717339D-08  0.54694956D-08  0.10597770D-07  0.57831587D-06
 -0.64786452D-05  0.48336988D-05 -0.62729778D+01 -0.83896604D+01 -0.96907051D+01
  0.70125413D+02  0.93787737D+02  0.10833207D+03 -0.52315686D+02 -0.69968498D+02
 -0.80819013D+02 -0.80658479D+01 -0.38043891D+01 -0.67234541D+00  0.90167847D+02
  0.42529140D+02  0.75161272D+01 -0.67267950D+02 -0.31728029D+02 -0.56072589D+01
 -0.71542102D-02 -0.14945485D-01 -0.95236177D-02  0.79976677D-01  0.16707508D+00
  0.10646421D+00 -0.59665028D-01 -0.12464308D+00 -0.79425527D-01  0.26635186D-02
 -0.29775388D-01  0.22213343D-01 -0.73825876D-03  0.82529741D-02 -0.61569696D-02
  0.73188635D-04 -0.81816718D-03  0.61037782D-03 -0.73960241D-05  0.82661995D-04
 -0.61668319D-04  0.78507470D-03  0.58521803D-03  0.27127553D-03  0.63430779D-04
  0.18781150D-03  0.14000027D-03  0.64896579D-04  0.15174390D-04 -0.97288620D-03
 -0.72521830D-03 -0.33617211D-03 -0.78605169D-04 -0.87948119D-02 -0.65559143D-02
 -0.30389684D-02 -0.71058432D-03  0.64306176D-02  0.47935735D-02  0.22220423D-02
  0.51956723D-03  0.11535162D-02  0.85986528D-03  0.39858719D-03  0.93199325D-04
 -0.52736826D-05 -0.46170765D-07  0.53198533D-05  0.59229756D-04 -0.43327047D-04
 -0.54728323D-05 -0.10912080D-06 -0.36386170D-06  0.47298250D-06  0.11815118D-05
 -0.85857740D-06 -0.79245589D-06 -0.11052664D-11 -0.20639813D-11 -0.35134695D-11
 -0.54464666D-11 -0.73342296D-11 -0.55588878D-11  0.11436451D-10  0.26640235D-10
  0.64981803D-11 -0.75138533D-10  0.11207662D-09 -0.35907627D-09  0.14037773D-08
 -0.10631396D-07  0.71679036D-07 -0.82129231D-06  0.61378144D-06  0.31389504D-05
  0.40196277D-05  0.43009585D-05  0.34223286D-05  0.78766726D-06 -0.34845296D-04
 -0.44621641D-04 -0.47744678D-04 -0.37991061D-04 -0.87438461D-05  0.26002997D-04
  0.33298509D-04  0.35629048D-04  0.28350497D-04  0.65250186D-05 -0.25104747D-05
  0.52167727D-06  0.27870262D-04 -0.57914472D-05 -0.20797937D-04  0.43218164D-05
 -0.80611055D-06  0.89458445D-05 -0.66757891D-05  0.42862644D-06 -0.47521761D-05
  0.35464012D-05 -0.18846529D-06  0.20805252D-05 -0.15528417D-05 -0.25612463D-06
 -0.40243629D-06  0.65856092D-06  0.27965792D-05 -0.20382601D-05 -0.10146481D-05
MO    6     MO 0.0        OCC NO =    2.0000000  ORB. ENERGY =  -56.140068
 -0.17827108D-09 -0.33186817D-09 -0.54592002D-09 -0.73307897D-09 -0.69022148D-09
 -0.56720094D-10  0.59425101D-09  0.15790362D-08 -0.21286511D-11 -0.59631047D-05
 -0.55799968D-05 -0.43219232D-05 -0.27229867D-04 -0.25480446D-04 -0.19735591D-04
 -0.35783363D-04 -0.33484411D-04 -0.25934971D-04 -0.86434247D-09  0.59675425D-05
  0.27242650D-04  0.35800097D-04  0.12410851D-08  0.14321007D-05  0.65387673D-05
  0.85937966D-05  0.19094806D-07 -0.92148313D-06 -0.41658254D-05 -0.54736817D-05
  0.30121577D-05  0.19794005D-04 -0.22806162D-04  0.10801084D-04  0.14142203D-04
 -0.45475063D-04 -0.64876227D-06 -0.11702746D-05 -0.17252932D-05 -0.10322450D-04
 -0.37625736D-05  0.12404670D-04 -0.16537178D-04 -0.14563086D-04  0.89335669D-05
  0.17871705D-05  0.32238006D-05  0.47527318D-05  0.28477924D-04  0.10347234D-04
 -0.34223799D-04  0.52596347D-04  0.14792917D-04  0.25770539D-04 -0.11394239D-05
 -0.20553582D-05 -0.30301397D-05 -0.18147164D-04 -0.66049661D-05  0.21802036D-04
 -0.30655255D-04  0.24407956D-04 -0.23259355D-05  0.15561869D-07  0.29021184D-07
  0.48838370D-07  0.76896447D-07  0.10199949D-06  0.66447432D-07  0.67617951D-07
  0.11395202D-06  0.24285198D-07 -0.82628123D-07 -0.15350329D-07 -0.15590518D-07
  0.10923782D-07 -0.77292782D-08  0.75601281D-08  0.14338358D-07 -0.10679013D-05
 -0.48646315D-05 -0.63929436D-05  0.11540010D+02  0.15433941D+02  0.17827392D+02
  0.52654916D+02  0.70422194D+02  0.81343067D+02  0.69196407D+02  0.92545258D+02
  0.10689691D+03  0.14838243D+02  0.69986999D+01  0.12368724D+01  0.67704135D+02
  0.31933763D+02  0.56436180D+01  0.88973324D+02  0.41965724D+02  0.74165552D+01
  0.13161159D-01  0.27494287D-01  0.17520012D-01  0.60051913D-01  0.12545130D+00
  0.79940545D-01  0.78917164D-01  0.16486171D+00  0.10505379D+00 -0.48999123D-02
 -0.22357381D-01 -0.29380931D-01  0.13581304D-02  0.61968932D-02  0.81436417D-02
 -0.13463881D-03 -0.61433559D-03 -0.80732912D-03  0.13600948D-04  0.62068312D-04
  0.81567571D-04 -0.14437890D-02 -0.10762432D-02 -0.49888834D-03 -0.11665216D-03
  0.13944909D-03  0.10394950D-03  0.48185383D-04  0.11266908D-04  0.13043399D-02
  0.97229372D-03  0.45070296D-03  0.10538525D-03 -0.65543210D-02 -0.48857858D-02
 -0.22647869D-02 -0.52956195D-03 -0.84395815D-02 -0.62911150D-02 -0.29162218D-02
 -0.68188318D-03  0.11962482D-02  0.89171898D-03  0.41335285D-03  0.96651893D-04
  0.96231234D-05  0.20643684D-06 -0.98295602D-05  0.43540744D-04  0.56078528D-04
 -0.10405315D-04  0.22197210D-06 -0.33700702D-06  0.11503491D-06  0.10471521D-05
  0.13444578D-05  0.49172189D-06 -0.31225613D-12 -0.58310902D-12 -0.99261355D-12
 -0.15387173D-11 -0.20720418D-11 -0.15704782D-11  0.23517364D-11  0.54781690D-11
  0.13362544D-11 -0.29839625D-10  0.75632396D-10 -0.42194299D-09  0.18337293D-08
 -0.14448975D-07 -0.13794113D-06 -0.61681410D-06 -0.81127885D-06 -0.57096957D-05
 -0.73116323D-05 -0.78233681D-05 -0.62251558D-05 -0.14327529D-05 -0.26166673D-04
 -0.33508107D-04 -0.35853315D-04 -0.28528949D-04 -0.65660904D-05 -0.34404470D-04
 -0.44057136D-04 -0.47140663D-04 -0.37510439D-04 -0.86332283D-05  0.45669678D-05
 -0.94901704D-06  0.20928842D-04 -0.43490186D-05  0.27517607D-04 -0.57181655D-05
  0.14655438D-05  0.67177987D-05  0.88328301D-05 -0.77803744D-06 -0.35686465D-05
 -0.46925000D-05  0.33965756D-06  0.15624517D-05  0.20550815D-05  0.48385486D-06
 -0.36589067D-06 -0.11796420D-06  0.22536914D-05  0.28996326D-05  0.28301209D-06
MO    7     MO 0.0        OCC NO =    2.0000000  ORB. ENERGY =  -10.080680
  0.43813336D+00  0.81562592D+00  0.13416970D+01  0.18016738D+01  0.16963438D+01
  0.13939987D+00  0.37091791D+00  0.98559834D+00 -0.13286554D-02  0.23330309D-02
  0.21831421D-02  0.16909280D-02 -0.51573008D-04 -0.48259629D-04 -0.37378948D-04
 -0.34935479D-03 -0.32691001D-03 -0.25320444D-03  0.78985653D-02 -0.12418073D-02
  0.27528183D-04  0.18596364D-03 -0.14544529D-02 -0.55731158D-04  0.12438175D-05
  0.83485719D-05 -0.72507267D-03  0.10122154D-03 -0.22467415D-05 -0.15159942D-04
 -0.14068594D-02  0.72680975D-03  0.68004962D-03  0.95146826D-04  0.63959300D-03
 -0.14223271D-04  0.48543201D-04  0.87565009D-04  0.12909390D-03 -0.12484373D-02
  0.71486795D-03  0.75025762D-04 -0.17311065D-03 -0.12120881D-02  0.19949309D-02
  0.48538602D-04  0.87556713D-04  0.12908167D-03 -0.12484752D-02  0.71487783D-03
  0.75021374D-04 -0.75943188D-03 -0.10654094D-02 -0.19409564D-02  0.48550609D-04
  0.87578373D-04  0.12911361D-03 -0.12483761D-02  0.71485259D-03  0.75038627D-04
 -0.37237988D-03  0.23064595D-02  0.14145016D-03  0.84538592D-06  0.15765523D-05
  0.26531048D-05  0.41773370D-05  0.55410396D-05  0.36097028D-05  0.34282468D-06
  0.57773955D-06  0.12312655D-06  0.20500734D-04 -0.45506354D-04  0.49468510D-04
 -0.28464147D-04 -0.10358577D-03  0.20867507D-03 -0.69290193D-04  0.11499730D-04
 -0.25902540D-06 -0.17234999D-05 -0.21814015D-03 -0.29174689D-03 -0.33699017D-03
  0.48827750D-05  0.65303633D-05  0.75430735D-05  0.32683019D-04  0.43711207D-04
  0.50489816D-04 -0.10031733D-03 -0.47316312D-04 -0.83621587D-05  0.23043245D-05
  0.10868723D-05  0.19208173D-06  0.15047568D-04  0.70974317D-05  0.12543211D-05
 -0.14389450D-04 -0.30060245D-04 -0.19155101D-04  0.31144750D-06  0.65062863D-06
  0.41459600D-06  0.21527463D-05  0.44971894D-05  0.28657158D-05  0.64436672D-04
 -0.13981163D-05 -0.96408786D-05  0.11391999D-03 -0.25702792D-05 -0.17074643D-04
 -0.15293350D-03  0.34203394D-05  0.22912797D-04 -0.59817754D-04  0.13296586D-05
  0.89594528D-05  0.30683391D-02  0.22872312D-02  0.10602371D-02  0.24790907D-03
 -0.15852600D-02 -0.11816999D-02 -0.54777237D-03 -0.12808243D-03 -0.14830791D-02
 -0.11055313D-02 -0.51246470D-03 -0.11982664D-03 -0.20741115D-03 -0.15461043D-03
 -0.71669063D-04 -0.16757960D-04 -0.13948494D-02 -0.10397622D-02 -0.48197772D-03
 -0.11269805D-03  0.31069731D-04  0.23160302D-04  0.10735867D-04  0.25103054D-05
 -0.35348591D-03  0.18262852D-03  0.17085740D-03  0.23897849D-04  0.16069364D-03
 -0.35797894D-05  0.15856656D-03 -0.81923147D-04 -0.76643417D-04 -0.10722242D-04
 -0.72084585D-04  0.16061153D-05 -0.14029996D-07 -0.26199702D-07 -0.44599172D-07
 -0.69136190D-07 -0.93099019D-07 -0.70563240D-07  0.50010847D-05  0.11649599D-04
  0.28416115D-05 -0.34017919D-04  0.37517039D-04 -0.74592958D-05 -0.16442170D-04
  0.19384219D-03  0.25475672D-04 -0.55761511D-06 -0.38131170D-05 -0.28892492D-03
 -0.36998693D-03 -0.39588205D-03 -0.31500850D-03 -0.72500893D-04  0.62346647D-05
  0.79838889D-05  0.85426755D-05  0.67975180D-05  0.15644852D-05  0.43216463D-04
  0.55341458D-04  0.59214767D-04  0.47117960D-04  0.10844451D-04  0.12695049D-03
 -0.26380342D-04 -0.27169105D-05  0.56457467D-06 -0.18981683D-04  0.39443983D-05
  0.11875622D-03 -0.25833037D-05 -0.17769713D-04 -0.93243476D-04  0.20458537D-05
  0.13957711D-04  0.27595985D-04 -0.60165069D-06 -0.41296125D-05 -0.79761668D-05