 Single Point Energy
GAUSSIAN             31 MOL ORBITALS    210 PRIMITIVES        6 NUCLEI   B3LYP
  C    1    (CENTRE  1)  -0.00264052 -0.07096649  1.68459754  CHARGE =  6.0
  H    2    (CENTRE  2)  -1.14123556 -1.72813149  1.41319871  CHARGE =  1.0
  H    3    (CENTRE  3)  -0.87649503  1.75580888  1.56013732  CHARGE =  1.0
  H    4    (CENTRE  4)   2.01096100 -0.21546393  1.48251801  CHARGE =  1.0
  Br   5    (CENTRE  5)   0.00579309  0.13843305 -3.29139664  CHARGE = 35.0
  Cl   6    (CENTRE  6)  -0.01059678 -0.24891596  5.91973195  CHARGE = 17.0
CENTRE ASSIGNMENTS    1  1  1  1  1  1  1  1  1  1  1  1  1  1  1  1  1  1  1  1
CENTRE ASSIGNMENTS    1  1  1  1  1  1  1  1  1  1  1  1  1  1  1  1  2  2  2  2
CENTRE ASSIGNMENTS    2  2  2  2  2  3  3  3  3  3  3  3  3  3  4  4  4  4  4  4
CENTRE ASSIGNMENTS    4  4  4  5  5  5  5  5  5  5  5  5  5  5  5  5  5  5  5  5
CENTRE ASSIGNMENTS    5  5  5  5  5  5  5  5  5  5  5  5  5  5  5  5  5  5  5  5
CENTRE ASSIGNMENTS    5  5  5  5  5  5  5  5  5  5  5  5  5  5  5  5  5  5  5  5
CENTRE ASSIGNMENTS    5  5  5  5  5  5  5  5  5  5  5  5  5  5  5  5  5  5  5  5
CENTRE ASSIGNMENTS    5  5  5  5  5  5  5  5  5  5  5  5  5  5  5  5  5  6  6  6
CENTRE ASSIGNMENTS    6  6  6  6  6  6  6  6  6  6  6  6  6  6  6  6  6  6  6  6
CENTRE ASSIGNMENTS    6  6  6  6  6  6  6  6  6  6  6  6  6  6  6  6  6  6  6  6
CENTRE ASSIGNMENTS    6  6  6  6  6  6  6  6  6  6
TYPE ASSIGNMENTS      1  1  1  1  1  1  1  1  1  2  2  2  3  3  3  4  4  4  1  2
TYPE ASSIGNMENTS      3  4  1  2  3  4  1  2  3  4  5  6  7  8  9 10  1  1  1  1
TYPE ASSIGNMENTS      1  1  2  3  4  1  1  1  1  1  1  2  3  4  1  1  1  1  1  1
TYPE ASSIGNMENTS      2  3  4  1  1  1  1  1  1  1  1  1  1  1  1  1  1  1  1  2
TYPE ASSIGNMENTS      3  4  2  2  2  3  3  3  4  4  4  2  2  2  3  3  3  4  4  4
TYPE ASSIGNMENTS      2  2  2  3  3  3  4  4  4  2  3  4  2  3  4  2  3  4  2  3
TYPE ASSIGNMENTS      4  5  5  5  5  6  6  6  6  7  7  7  7  8  8  8  8  9  9  9
TYPE ASSIGNMENTS      9 10 10 10 10  5  6  7  8  9 10  5  6  7  8  9 10  1  1  1
TYPE ASSIGNMENTS      1  1  1  1  1  1  1  1  1  1  1  2  3  4  2  2  2  2  2  3
TYPE ASSIGNMENTS      3  3  3  3  4  4  4  4  4  2  2  3  3  4  4  2  3  4  2  3
TYPE ASSIGNMENTS      4  2  3  4  5  6  7  8  9 10
EXPONENTS  0.4563240D+04 0.6820240D+03 0.1549730D+03 0.4445530D+02 0.1302900D+02
EXPONENTS  0.1827730D+01 0.2096420D+02 0.4803310D+01 0.1459330D+01 0.2096420D+02
EXPONENTS  0.4803310D+01 0.1459330D+01 0.2096420D+02 0.4803310D+01 0.1459330D+01
EXPONENTS  0.2096420D+02 0.4803310D+01 0.1459330D+01 0.4834560D+00 0.4834560D+00
EXPONENTS  0.4834560D+00 0.4834560D+00 0.1455850D+00 0.1455850D+00 0.1455850D+00
EXPONENTS  0.1455850D+00 0.4380000D-01 0.4380000D-01 0.4380000D-01 0.4380000D-01
EXPONENTS  0.6260000D+00 0.6260000D+00 0.6260000D+00 0.6260000D+00 0.6260000D+00
EXPONENTS  0.6260000D+00 0.3386500D+02 0.5094790D+01 0.1158790D+01 0.3258400D+00
EXPONENTS  0.1027410D+00 0.3600000D-01 0.7500000D+00 0.7500000D+00 0.7500000D+00
EXPONENTS  0.3386500D+02 0.5094790D+01 0.1158790D+01 0.3258400D+00 0.1027410D+00
EXPONENTS  0.3600000D-01 0.7500000D+00 0.7500000D+00 0.7500000D+00 0.3386500D+02
EXPONENTS  0.5094790D+01 0.1158790D+01 0.3258400D+00 0.1027410D+00 0.3600000D-01
EXPONENTS  0.7500000D+00 0.7500000D+00 0.7500000D+00 0.4397000D+06 0.6603000D+05
EXPONENTS  0.1514000D+05 0.4317000D+04 0.1414000D+04 0.5239000D+03 0.5239000D+03
EXPONENTS  0.2077000D+03 0.8654000D+02 0.3052000D+02 0.1298000D+02 0.4412000D+01
EXPONENTS  0.1862000D+01 0.3932000D+00 0.1400000D+00 0.3500000D-01 0.3500000D-01
EXPONENTS  0.3500000D-01 0.3500000D-01 0.2957000D+04 0.7003000D+03 0.2246000D+03
EXPONENTS  0.2957000D+04 0.7003000D+03 0.2246000D+03 0.2957000D+04 0.7003000D+03
EXPONENTS  0.2246000D+03 0.8259000D+02 0.3319000D+02 0.1420000D+02 0.8259000D+02
EXPONENTS  0.3319000D+02 0.1420000D+02 0.8259000D+02 0.3319000D+02 0.1420000D+02
EXPONENTS  0.1420000D+02 0.7438000D+01 0.3526000D+01 0.1420000D+02 0.7438000D+01
EXPONENTS  0.3526000D+01 0.1420000D+02 0.7438000D+01 0.3526000D+01 0.1595000D+01
EXPONENTS  0.1595000D+01 0.1595000D+01 0.8462000D+00 0.8462000D+00 0.8462000D+00
EXPONENTS  0.3186000D+00 0.3186000D+00 0.3186000D+00 0.1096000D+00 0.1096000D+00
EXPONENTS  0.1096000D+00 0.1348000D+03 0.3639000D+02 0.1216000D+02 0.4341000D+01
EXPONENTS  0.1348000D+03 0.3639000D+02 0.1216000D+02 0.4341000D+01 0.1348000D+03
EXPONENTS  0.3639000D+02 0.1216000D+02 0.4341000D+01 0.1348000D+03 0.3639000D+02
EXPONENTS  0.1216000D+02 0.4341000D+01 0.1348000D+03 0.3639000D+02 0.1216000D+02
EXPONENTS  0.4341000D+01 0.1348000D+03 0.3639000D+02 0.1216000D+02 0.4341000D+01
EXPONENTS  0.1535000D+01 0.1535000D+01 0.1535000D+01 0.1535000D+01 0.1535000D+01
EXPONENTS  0.1535000D+01 0.4510000D+00 0.4510000D+00 0.4510000D+00 0.4510000D+00
EXPONENTS  0.4510000D+00 0.4510000D+00 0.1058190D+06 0.1587200D+05 0.3619650D+04
EXPONENTS  0.1030800D+04 0.3399080D+03 0.1245380D+03 0.1245380D+03 0.4951350D+02
EXPONENTS  0.2080560D+02 0.6583460D+01 0.2564680D+01 0.5597630D+00 0.1832730D+00
EXPONENTS  0.4830000D-01 0.4830000D-01 0.4830000D-01 0.4830000D-01 0.5897760D+03
EXPONENTS  0.1398490D+03 0.4514130D+02 0.1687330D+02 0.2771520D+01 0.5897760D+03
EXPONENTS  0.1398490D+03 0.4514130D+02 0.1687330D+02 0.2771520D+01 0.5897760D+03
EXPONENTS  0.1398490D+03 0.4514130D+02 0.1687330D+02 0.2771520D+01 0.6741100D+01
EXPONENTS  0.2771520D+01 0.6741100D+01 0.2771520D+01 0.6741100D+01 0.2771520D+01
EXPONENTS  0.1023870D+01 0.1023870D+01 0.1023870D+01 0.3813680D+00 0.3813680D+00
EXPONENTS  0.3813680D+00 0.1094370D+00 0.1094370D+00 0.1094370D+00 0.7500000D+00
EXPONENTS  0.7500000D+00 0.7500000D+00 0.7500000D+00 0.7500000D+00 0.7500000D+00
MO    1     MO 0.0        OCC NO =    2.0000000  ORB. ENERGY = -482.594844
 -0.27261567D-06 -0.50749937D-06 -0.83483169D-06 -0.11210388D-05 -0.10555003D-05
 -0.86737489D-07  0.68168751D-06  0.18113713D-05 -0.24418551D-08  0.26050024D-10
  0.24376405D-10  0.18880468D-10 -0.28727454D-08 -0.26881819D-08 -0.20821008D-08
  0.67149141D-07  0.62835051D-07  0.48668176D-07 -0.24662961D-05 -0.15862122D-08
 -0.46448691D-07  0.11012431D-05  0.28212194D-05  0.45464410D-08  0.10042692D-06
 -0.23905587D-05  0.27746283D-05  0.44517216D-08  0.10440526D-06 -0.24829899D-05
 -0.10509571D-05 -0.10459836D-05  0.20969407D-05  0.54159773D-09 -0.11180921D-07
 -0.26480490D-06 -0.86750386D-07 -0.15648532D-06 -0.23070061D-06 -0.64778824D-08
 -0.21019927D-05 -0.11811969D-05  0.38919948D-06  0.53991980D-06  0.78263266D-06
 -0.86800324D-07 -0.15657540D-06 -0.23083341D-06 -0.61677032D-08 -0.21018741D-05
 -0.11813264D-05  0.29858285D-06 -0.65635591D-06  0.73159660D-06 -0.86614757D-07
 -0.15624066D-06 -0.23033992D-06 -0.73030207D-08 -0.21023400D-05 -0.11808722D-05
 -0.69120774D-06  0.20550556D-07  0.76039477D-06  0.38584358D+01  0.71955606D+01
  0.12109067D+02  0.19065833D+02  0.25289924D+02  0.16475087D+02  0.96359559D+01
  0.16238833D+02  0.34607836D+01  0.81724264D-01 -0.11309997D-01  0.24852453D-02
 -0.64255784D-03  0.71204155D-04 -0.22053802D-04 -0.44532822D-06 -0.43407520D-10
  0.53506195D-09 -0.12176374D-07 -0.75904057D-06 -0.10151626D-05 -0.11725911D-05
 -0.20184655D-04 -0.26995536D-04 -0.31181927D-04  0.47910509D-03  0.64076888D-03
  0.74013750D-03 -0.11530150D-06 -0.54383840D-07 -0.96111949D-08 -0.30593397D-05
 -0.14429876D-05 -0.25501758D-06  0.72655472D-04  0.34269142D-04  0.60563470D-05
  0.53916475D-08  0.11263408D-07  0.71773107D-08  0.14348886D-06  0.29975504D-06
  0.19101102D-06 -0.34068992D-05 -0.71171742D-05 -0.45352323D-05 -0.17202501D-07
 -0.45668655D-06  0.10843109D-04  0.13605764D-07  0.35971784D-06 -0.85410621D-05
 -0.65602060D-08 -0.17145821D-06  0.40715870D-05  0.46445331D-08  0.11934481D-06
 -0.28346757D-05  0.34967773D-04  0.26066018D-04  0.12082801D-04  0.28252510D-05
  0.34783556D-04  0.25928697D-04  0.12019146D-04  0.28103670D-05 -0.69751329D-04
 -0.51994714D-04 -0.24101947D-04 -0.56356180D-05 -0.13331193D-07 -0.99374676D-08
 -0.46064743D-08 -0.10771051D-08  0.33069587D-06  0.24651053D-06  0.11426899D-06
  0.26718854D-07  0.88220903D-05  0.65762484D-05  0.30483942D-05  0.71278830D-06
 -0.32148932D-05 -0.31979751D-05  0.64128682D-05  0.12903636D-08 -0.30509226D-07
 -0.81107207D-06  0.82868164D-06  0.82432365D-06 -0.16530053D-05 -0.33636546D-09
  0.78851258D-08  0.20905843D-06  0.15863519D-06  0.29623634D-06  0.50427655D-06
  0.78171316D-06  0.10526575D-05  0.79784861D-06 -0.57690198D-06 -0.13438438D-05
 -0.32779514D-06  0.21320377D-05 -0.20009026D-05  0.13125880D-05 -0.14841842D-05
  0.69958629D-05  0.17070050D-08  0.35954403D-07 -0.85652267D-06 -0.14029087D-07
 -0.17965147D-07 -0.19222515D-07 -0.15295605D-07 -0.35203655D-08 -0.28405449D-06
 -0.36375003D-06 -0.38920863D-06 -0.30969837D-06 -0.71278738D-07  0.67715297D-05
  0.86713790D-05  0.92782826D-05  0.73828502D-05  0.16992025D-05  0.12533302D-07
 -0.26044231D-08  0.25373853D-06 -0.52726930D-07 -0.60488432D-05  0.12569511D-05
  0.29793886D-08  0.60235124D-07 -0.14359753D-05 -0.13562133D-08 -0.27641268D-07
  0.65886614D-06  0.18903404D-08  0.42324378D-07 -0.10073019D-05 -0.51622382D-06
 -0.51349290D-06  0.10297167D-05  0.25499653D-09 -0.60986421D-08 -0.12980937D-06
MO    2     MO 0.0        OCC NO =    2.0000000  ORB. ENERGY = -101.347135
 -0.49257097D-06 -0.91696659D-06 -0.15084014D-05 -0.20255299D-05 -0.19071128D-05
 -0.15672015D-06  0.13782440D-05  0.36622523D-05 -0.49369719D-08 -0.47522531D-08
 -0.44469380D-08 -0.34443254D-08 -0.12349192D-06 -0.11555801D-06 -0.89504149D-07
  0.29325569D-05  0.27441507D-05  0.21254508D-05 -0.15946943D-04  0.19166780D-07
  0.41175440D-06 -0.98048385D-05  0.32467210D-04 -0.41391556D-07 -0.94853605D-06
  0.22566750D-04 -0.45019679D-04  0.33459304D-07  0.76184842D-06 -0.18126772D-04
 -0.62344293D-05 -0.62033344D-05  0.12437764D-04  0.31853651D-08 -0.71382323D-07
 -0.15688358D-05  0.16247474D-05  0.29308126D-05  0.43207902D-05 -0.14479497D-04
  0.14962783D-05 -0.14319046D-05 -0.95304296D-06 -0.93869206D-06 -0.11627776D-04
  0.16246822D-05  0.29306949D-05  0.43206168D-05 -0.14479188D-04  0.14965621D-05
 -0.14323516D-05 -0.72609083D-06  0.20406574D-05 -0.11501260D-04  0.16249553D-05
  0.29311876D-05  0.43213431D-05 -0.14480466D-04  0.14954154D-05 -0.14306369D-05
  0.17468039D-05  0.35519887D-06 -0.11571049D-04  0.79769325D-07  0.14876106D-06
  0.25034292D-06  0.39416714D-06  0.52284404D-06  0.34060604D-06 -0.27586857D-05
 -0.46490288D-05 -0.99079057D-06  0.16763463D-04 -0.23592904D-04  0.22189294D-04
 -0.15000054D-04  0.76368994D-05 -0.85769697D-05 -0.10651367D-04  0.18831113D-08
  0.57066000D-07 -0.13526625D-05  0.28459498D-07  0.38062549D-07  0.43965181D-07
  0.79638919D-06  0.10651137D-05  0.12302885D-05 -0.18894781D-04 -0.25270421D-04
 -0.29189286D-04 -0.88822701D-07 -0.41894680D-07 -0.74039997D-08 -0.24933408D-05
 -0.11760250D-05 -0.20783758D-06  0.59153604D-04  0.27900765D-04  0.49308708D-05
  0.10965539D-07  0.22907532D-07  0.14597223D-07  0.30757837D-06  0.64254583D-06
  0.40944545D-06 -0.72972501D-05 -0.15244302D-04 -0.97140311D-05 -0.40684969D-07
 -0.11394913D-05  0.27034723D-04  0.30992975D-07  0.86827948D-06 -0.20600058D-04
 -0.93461462D-08 -0.26829307D-06  0.63633624D-05  0.23729459D-09  0.22263221D-07
 -0.52357512D-06 -0.12963536D-03 -0.96634055D-04 -0.44794339D-04 -0.10474000D-04
 -0.12894430D-03 -0.96118914D-04 -0.44555547D-04 -0.10418165D-04  0.25857966D-03
  0.19275297D-03  0.89349886D-04  0.20892164D-04  0.56644188D-07  0.42224262D-07
  0.19572892D-07  0.45766154D-08 -0.13648416D-05 -0.10173935D-05 -0.47160877D-06
 -0.11027354D-06 -0.32656005D-04 -0.24342757D-04 -0.11283990D-04 -0.26384698D-05
  0.10412060D-04  0.10356579D-04 -0.20768639D-04 -0.45487746D-08  0.10948426D-06
  0.26229195D-05 -0.28936841D-05 -0.28782920D-05  0.57719761D-05  0.12631119D-08
 -0.30298158D-07 -0.72900370D-06  0.12702099D+01  0.23719979D+01  0.40377994D+01
  0.62592656D+01  0.84287475D+01  0.63884640D+01  0.23318189D+01  0.54317728D+01
  0.13249372D+01  0.43892612D-01 -0.56882774D-02  0.67016072D-03 -0.19959567D-03
  0.86398632D-04  0.29748507D-07  0.66280432D-06 -0.15775489D-04  0.76181817D-06
  0.97555713D-06  0.10438357D-05  0.83059362D-06  0.19116557D-06  0.16430259D-04
  0.21040003D-04  0.22512577D-04  0.17913550D-04  0.41228996D-05 -0.39137496D-03
 -0.50118079D-03 -0.53625808D-03 -0.42670753D-03 -0.98209022D-04 -0.11443603D-06
  0.23779836D-07 -0.24496256D-05  0.50903279D-06  0.58371112D-04 -0.12129531D-04
 -0.48657468D-07 -0.10435744D-05  0.24863191D-04  0.10531915D-07  0.22940785D-06
 -0.54637585D-05 -0.30147863D-07 -0.67309068D-06  0.16019924D-04  0.88426449D-05
  0.87960353D-05 -0.17638680D-04 -0.41864209D-08  0.99629262D-07  0.22253251D-05
MO    3     MO 0.0        OCC NO =    2.0000000  ORB. ENERGY =  -62.247966
 -0.27496235D-05 -0.51186794D-05 -0.84201795D-05 -0.11306888D-04 -0.10645861D-04
 -0.87484128D-06  0.82319228D-05  0.21873760D-04 -0.29487357D-07 -0.60536877D-09
 -0.56647602D-09 -0.43875757D-09 -0.60558522D-07 -0.56667856D-07 -0.43891445D-07
  0.14246293D-05  0.13331020D-05  0.10325390D-05 -0.34244525D-04 -0.22003352D-07
 -0.64414894D-06  0.15272082D-04  0.39681057D-04  0.63971303D-07  0.14126183D-05
 -0.33626098D-04  0.39934502D-04  0.63202525D-07  0.14822349D-05 -0.35250862D-04
 -0.14642802D-04 -0.14573607D-04  0.29216410D-04  0.75517476D-08 -0.15567853D-06
 -0.36895349D-05 -0.12442014D-05 -0.22443618D-05 -0.33087809D-05  0.33627655D-08
 -0.29947670D-04 -0.16905986D-04  0.53889387D-05  0.74772414D-05  0.10801259D-04
 -0.12448878D-05 -0.22455999D-05 -0.33106062D-05  0.76878930D-08 -0.29945958D-04
 -0.16907841D-04  0.41342765D-05 -0.90865049D-05  0.10094511D-04 -0.12423366D-05
 -0.22409979D-05 -0.33038216D-05 -0.81579267D-08 -0.29952648D-04 -0.16901348D-04
 -0.95703283D-05  0.28600398D-06  0.10493593D-04 -0.12742137D+01 -0.23762691D+01
 -0.39989102D+01 -0.62963196D+01 -0.83517696D+01 -0.54407490D+01 -0.53839981D+01
 -0.90732926D+01 -0.19336797D+01  0.58199291D+01  0.24291533D+01  0.10314466D+00
 -0.10962970D-01  0.10314953D-02 -0.31601517D-03 -0.61171579D-05 -0.62250644D-09
  0.75718326D-08 -0.17221767D-06 -0.18600427D-04 -0.24876745D-04 -0.28734559D-04
 -0.49182058D-03 -0.65777495D-03 -0.75978081D-03  0.11686250D-01  0.15629526D-01
  0.18053309D-01 -0.26156478D-04 -0.12337131D-04 -0.21803273D-05 -0.69169985D-03
 -0.32625155D-03 -0.57658070D-04  0.16435224D-01  0.77519420D-02  0.13699920D-02
 -0.11698368D-07 -0.24438447D-07 -0.15572758D-07 -0.29907054D-06 -0.62477257D-06
 -0.39811990D-06  0.71452132D-05  0.14926690D-04  0.95116410D-05 -0.17799481D-06
 -0.47203798D-05  0.11207762D-03  0.17005332D-06  0.44860217D-05 -0.10652778D-03
 -0.90319351D-07 -0.23576522D-05  0.55989847D-04  0.65488389D-07  0.16822913D-05
 -0.39958199D-04 -0.66445831D-03 -0.49530698D-03 -0.22959761D-03 -0.53685475D-04
 -0.66101718D-03 -0.49274186D-03 -0.22840856D-03 -0.53407446D-04  0.13254755D-02
  0.98804883D-03  0.45800618D-03  0.10709292D-03  0.43596362D-06  0.32498025D-06
  0.15064332D-06  0.35224052D-07 -0.65232323D-05 -0.48626113D-05 -0.22540445D-05
 -0.52705011D-06 -0.16758559D-03 -0.12492328D-03 -0.57907697D-04 -0.13540220D-04
 -0.34737382D-04 -0.34553560D-04  0.69290942D-04  0.12037111D-07 -0.32798558D-06
 -0.87637416D-05  0.11015780D-04  0.10957810D-04 -0.21973590D-04 -0.43968540D-08
  0.10470867D-06  0.27790399D-05  0.47313196D-06  0.88352954D-06  0.15040127D-05
  0.23314718D-05  0.31395675D-05  0.23795960D-05 -0.48654797D-05 -0.11333719D-04
 -0.27645608D-05  0.25614659D-04 -0.26010986D-04  0.18235090D-04 -0.21102877D-04
  0.99272467D-04  0.24241133D-07  0.51056843D-06 -0.12163005D-04 -0.15952426D-06
 -0.20428106D-06 -0.21857855D-06 -0.17392579D-06 -0.40029952D-07 -0.32296768D-05
 -0.41358087D-05 -0.44252709D-05 -0.35212456D-05 -0.81043354D-06  0.76992353D-04
  0.98593656D-04  0.10549415D-03  0.83943071D-04  0.19319947D-04  0.13151431D-06
 -0.27328707D-07  0.26639383D-05 -0.55356703D-06 -0.63505137D-04  0.13196383D-04
  0.37586436D-07  0.75989241D-06 -0.18115560D-04 -0.18513218D-07 -0.37781893D-06
  0.90056518D-05  0.26645840D-07  0.59688978D-06 -0.14205624D-04 -0.72257400D-05
 -0.71875129D-05  0.14413253D-04  0.35687840D-08 -0.85340235D-07 -0.18169878D-05
MO    4     MO 0.0        OCC NO =    2.0000000  ORB. ENERGY =  -56.066391
  0.42068913D-06  0.78315187D-06  0.12882775D-05  0.17299404D-05  0.16288041D-05
  0.13384968D-06 -0.10153989D-05 -0.26981049D-05  0.36372339D-08 -0.13407359D-07
 -0.12545985D-07 -0.97173504D-08 -0.45155697D-06 -0.42254606D-06 -0.32727826D-06
  0.10687753D-04  0.10001103D-04  0.77462410D-05 -0.14068072D-04 -0.50435896D-07
 -0.12756867D-05  0.30312809D-04  0.75100475D-04  0.55048060D-07  0.14008791D-05
 -0.33277356D-04  0.25964779D-04 -0.84216989D-07 -0.20068472D-05  0.47717341D-04
  0.63105695D-05  0.62832689D-05 -0.12593838D-04 -0.41734292D-08  0.84873773D-07
  0.15839081D-05  0.10749317D-04  0.19390235D-04  0.28586317D-04 -0.80383915D-04
  0.52523410D-05 -0.79105256D-05 -0.33983288D-04 -0.52210121D-04  0.61255786D-04
  0.10748210D-04  0.19388237D-04  0.28583372D-04 -0.80387371D-04  0.52537409D-05
 -0.79118753D-05 -0.26109556D-04  0.51420904D-04  0.65627448D-04  0.10752250D-04
  0.19395525D-04  0.28594116D-04 -0.80375532D-04  0.52490112D-05 -0.79076688D-05
  0.59773517D-04 -0.72156274D-05  0.63314613D-04  0.18489756D-03  0.34481372D-03
  0.58027061D-03  0.91364122D-03  0.12119018D-02  0.78949178D-03  0.79829908D-03
  0.13453201D-02  0.28671160D-03 -0.93240296D-03 -0.26656174D-03 -0.94998287D-04
  0.59172553D-04 -0.20774369D-04  0.14298738D-04  0.68663516D-04 -0.44061561D-08
 -0.10583144D-06  0.25172516D-05 -0.14129862D+00 -0.18897682D+00 -0.21828281D+00
 -0.36908647D+01 -0.49362683D+01 -0.57017707D+01  0.87634182D+02  0.11720447D+03
  0.13538020D+03 -0.18168561D+00 -0.85694990D-01 -0.15144779D-01 -0.47458157D+01
 -0.22384416D+01 -0.39559727D+00  0.11268245D+03  0.53148521D+02  0.93928784D+01
 -0.16143863D-03 -0.33725297D-03 -0.21490559D-03 -0.42167896D-02 -0.88090739D-02
 -0.56133509D-02  0.10012155D+00  0.20915868D+00  0.13328088D+00  0.60647104D-04
  0.15835815D-02 -0.37600020D-01 -0.17081920D-04 -0.44572803D-03  0.10583325D-01
  0.17887965D-05  0.46555836D-04 -0.11054638D-02 -0.19717206D-06 -0.51184219D-05
  0.12154205D-03 -0.47894535D-03 -0.35702010D-03 -0.16549527D-03 -0.38696797D-04
 -0.47636013D-03 -0.35509300D-03 -0.16460197D-03 -0.38487923D-04  0.95530548D-03
  0.71211311D-03  0.33009725D-03  0.77184720D-04  0.18520357D-06  0.13805625D-06
  0.63995435D-07  0.14963680D-07 -0.43477985D-05 -0.32409783D-05 -0.15023428D-05
 -0.35128408D-06 -0.12079303D-03 -0.90042715D-04 -0.41738949D-04 -0.97595757D-05
 -0.24832609D-04 -0.24704861D-04  0.49537470D-04  0.11585701D-07 -0.25977051D-06
 -0.62570983D-05  0.90134955D-05  0.89666281D-05 -0.17980124D-04 -0.41227264D-08
  0.93027107D-07  0.22713897D-05 -0.38612915D-06 -0.72105995D-06 -0.12274444D-05
 -0.19027445D-05 -0.25622419D-05 -0.19420193D-05  0.43051436D-05  0.10028464D-04
  0.24461784D-05 -0.23222139D-04  0.23902710D-04 -0.18525283D-04  0.20559819D-04
 -0.10574340D-03 -0.28458381D-07 -0.57854659D-06  0.13790656D-04  0.10027443D-06
  0.12840785D-06  0.13739503D-06  0.10932701D-06  0.25162197D-07  0.23449309D-05
  0.30028347D-05  0.32130009D-05  0.25566266D-05  0.58842131D-06 -0.55764977D-04
 -0.71410637D-04 -0.76408617D-04 -0.60799330D-04 -0.13993291D-04 -0.80700194D-07
  0.16769520D-07 -0.18895727D-05  0.39265367D-06  0.44935248D-04 -0.93375556D-05
 -0.25481610D-07 -0.59251034D-06  0.14091696D-04  0.15276317D-07  0.35279447D-06
 -0.83914004D-05 -0.56396842D-08 -0.14915719D-06  0.35408888D-05 -0.10404752D-05
 -0.10346822D-05  0.20751574D-05  0.39013193D-09 -0.99556127D-08 -0.26235426D-06
MO    5     MO 0.0        OCC NO =    2.0000000  ORB. ENERGY =  -56.065357
  0.60403407D-09  0.11244655D-08  0.18497352D-08  0.24838839D-08  0.23386703D-08
  0.19218411D-09 -0.19572251D-08 -0.52007136D-08  0.70109252D-11  0.92165039D-05
  0.86243769D-05  0.66799132D-05  0.48856732D-05  0.45717864D-05  0.35410252D-05
  0.22123842D-06  0.20702465D-06  0.16034859D-06  0.60473608D-08 -0.51416926D-05
 -0.27315571D-05 -0.12608809D-06 -0.72640182D-08  0.97017959D-05  0.51377381D-05
  0.23613017D-06  0.84162292D-08 -0.34602188D-05 -0.18321171D-05 -0.78710635D-07
  0.26099374D-05 -0.24863552D-05 -0.12358214D-06 -0.42933836D-05 -0.50205564D-05
 -0.27831610D-05  0.30132410D-07  0.54354569D-07  0.80132961D-07  0.58034310D-05
  0.16323512D-04 -0.24100910D-04 -0.36827906D-06  0.10570800D-04 -0.20033744D-04
 -0.16912528D-08 -0.30507788D-08 -0.44976521D-08 -0.25356225D-06 -0.72842790D-06
  0.10749661D-05 -0.11404874D-04 -0.51322479D-05  0.67390300D-06 -0.28535338D-07
 -0.51473679D-07 -0.75885770D-07 -0.55430363D-05 -0.15587676D-04  0.23019964D-04
  0.68964876D-05 -0.80292422D-05  0.19230165D-04  0.62190079D-08  0.11597769D-07
  0.19517335D-07  0.30730216D-07  0.40762176D-07  0.26554464D-07  0.26929458D-07
  0.45382417D-07  0.96717987D-08 -0.32793266D-07 -0.71971300D-08 -0.43921433D-08
  0.32654892D-08 -0.30197111D-08  0.33420594D-08  0.66313771D-08 -0.75483299D-05
 -0.39964849D-05 -0.17961591D-06  0.77502687D+02  0.10365432D+03  0.11972873D+03
  0.41031251D+02  0.54876372D+02  0.63386443D+02  0.18530648D+01  0.24783420D+01
  0.28626762D+01  0.99654586D+02  0.47003716D+02  0.83069139D+01  0.52758846D+02
  0.24884573D+02  0.43978226D+01  0.23827098D+01  0.11238440D+01  0.19861569D+00
  0.88412077D-01  0.18469703D+00  0.11769333D+00  0.46806869D-01  0.97781773D-01
  0.62308866D-01  0.21139010D-02  0.44160397D-02  0.28140053D-02 -0.32903123D-01
 -0.17419477D-01 -0.78668930D-03  0.91090667D-02  0.48224970D-02  0.21778481D-03
 -0.89959346D-03 -0.47626110D-03 -0.21506606D-04  0.90741836D-04  0.48040714D-04
  0.21706640D-05 -0.26324636D-05 -0.19623166D-05 -0.90962420D-06 -0.21269214D-06
 -0.59485526D-04 -0.44342280D-04 -0.20554690D-04 -0.48061838D-05  0.62117990D-04
  0.46304596D-04  0.21464315D-04  0.50188759D-05 -0.11416325D-03 -0.85100684D-04
 -0.39448089D-04 -0.92239173D-05  0.25961534D-02  0.19352499D-02  0.89707754D-03
  0.20975842D-03  0.13718244D-02  0.10225987D-02  0.47402164D-03  0.11083772D-03
  0.21702634D-07  0.60609101D-06 -0.62779365D-06  0.11570048D-05 -0.25987639D-04
 -0.13732320D-04 -0.91156888D-08 -0.39688382D-07  0.48804071D-07 -0.75884447D-07
  0.19668880D-05  0.10398818D-05 -0.33700912D-10 -0.62933291D-10 -0.10712995D-09
 -0.16606937D-09 -0.22362955D-09 -0.16949723D-09  0.37476679D-09  0.87298719D-09
  0.21294212D-09 -0.20463966D-08  0.21607643D-08 -0.18932564D-08  0.27920837D-08
 -0.13848027D-07 -0.63145725D-06 -0.33470123D-06 -0.13169251D-07 -0.35982415D-04
 -0.46077796D-04 -0.49302747D-04 -0.39230837D-04 -0.90291873D-05 -0.19054536D-04
 -0.24400558D-04 -0.26108336D-04 -0.20774742D-04 -0.47814182D-05 -0.89020585D-06
 -0.11399658D-05 -0.12197512D-05 -0.97057189D-06 -0.22338232D-06  0.28888821D-04
 -0.60031041D-05  0.15298134D-04 -0.31789560D-05  0.71466009D-06 -0.14850654D-06
  0.91020596D-05  0.48199950D-05  0.22524455D-06 -0.46497259D-05 -0.24622826D-05
 -0.11519809D-06  0.18028044D-05  0.95479429D-06  0.45477906D-07  0.86528822D-07
 -0.55646695D-07 -0.30882127D-07 -0.93020787D-07 -0.12242919D-05 -0.65101351D-06
MO    6     MO 0.0        OCC NO =    2.0000000  ORB. ENERGY =  -56.065357
 -0.65823328D-09 -0.12253624D-08 -0.20157096D-08 -0.27067596D-08 -0.25485162D-08
 -0.20942854D-09  0.21359334D-08  0.56755749D-08 -0.76510715D-11 -0.48853380D-05
 -0.45714727D-05 -0.35407823D-05  0.92225826D-05  0.86300651D-05  0.66843190D-05
  0.37990972D-06  0.35550189D-06  0.27534996D-06 -0.67197640D-08  0.27263913D-05
 -0.51584413D-05 -0.20962786D-06  0.85673401D-08 -0.51417376D-05  0.96972694D-05
  0.39534764D-06 -0.88066266D-08  0.18337686D-05 -0.34572180D-05 -0.14657950D-06
 -0.22592882D-05  0.24520559D-05 -0.19276767D-06 -0.52808170D-05  0.23396625D-05
 -0.46470851D-05  0.16441481D-07  0.29658086D-07  0.43723837D-07  0.30428634D-05
  0.85834696D-05 -0.12672437D-04  0.11457090D-04 -0.24083895D-05 -0.10842552D-04
 -0.34352436D-07 -0.61966894D-07 -0.91355536D-07 -0.65483386D-05 -0.18431709D-04
  0.27210613D-04 -0.34025872D-05  0.71634940D-05  0.23414255D-04  0.18241185D-07
  0.32904496D-07  0.48509900D-07  0.34962173D-05  0.98401488D-05 -0.14531846D-04
 -0.54685761D-05 -0.96489760D-05 -0.12758352D-04  0.36209279D-08  0.67526343D-08
  0.11363687D-07  0.17892226D-07  0.23733190D-07  0.15460955D-07  0.14763848D-07
  0.24880528D-07  0.53024822D-08 -0.16259940D-07 -0.77496890D-08  0.19966774D-08
 -0.16668171D-08  0.25409932D-08 -0.32723995D-08 -0.66767012D-08  0.40003086D-05
 -0.75424095D-05 -0.31207624D-06 -0.41072831D+02 -0.54931982D+02 -0.63450677D+02
  0.77436926D+02  0.10356636D+03  0.11962714D+03  0.31951651D+01  0.42733054D+01
  0.49359975D+01 -0.52812310D+02 -0.24909790D+02 -0.44022792D+01  0.99570028D+02
  0.46963833D+02  0.82998654D+01  0.41084105D+01  0.19377990D+01  0.34246504D+00
 -0.46854306D-01 -0.97880871D-01 -0.62372014D-01  0.88337064D-01  0.18454033D+00
  0.11759347D+00  0.36449259D-02  0.76144234D-02  0.48520912D-02  0.17437142D-01
 -0.32875226D-01 -0.13564975D-02 -0.48273905D-02  0.91013522D-02  0.37554763D-03
  0.47674406D-03 -0.89883384D-03 -0.37090488D-04 -0.48089146D-04  0.90666116D-04
  0.37400686D-05  0.84795051D-06  0.63208752D-06  0.29300170D-06  0.68510884D-07
 -0.10775191D-03 -0.80321479D-04 -0.37232708D-04 -0.87059075D-05  0.10690396D-03
  0.79689392D-04  0.36939706D-04  0.86373967D-05  0.50487924D-04  0.37635200D-04
  0.17445650D-04  0.40792148D-05 -0.13762591D-02 -0.10259044D-02 -0.47555399D-03
 -0.11119602D-03  0.25898170D-02  0.19305266D-02  0.89488807D-03  0.20924647D-03
 -0.52743707D-08  0.10678901D-05 -0.10626157D-05 -0.48298107D-06  0.13778282D-04
 -0.25930086D-04  0.70770615D-08 -0.86087775D-07  0.79010713D-07  0.49570702D-07
 -0.10421698D-05  0.19627700D-05  0.33381775D-10  0.62337333D-10  0.10611546D-09
  0.16449674D-09  0.22151185D-09  0.16789214D-09 -0.37113353D-09 -0.86452384D-09
 -0.21087771D-09  0.20291396D-08 -0.21481582D-08  0.19045022D-08 -0.28569832D-08
  0.14053315D-07  0.33469021D-06 -0.63151994D-06 -0.28034263D-07  0.19069863D-04
  0.24420185D-04  0.26129336D-04  0.20791453D-04  0.47852642D-05 -0.35966333D-04
 -0.46057201D-04 -0.49280711D-04 -0.39213303D-04 -0.90251516D-05 -0.14519968D-05
 -0.18593752D-05 -0.19895116D-05 -0.15830802D-05 -0.36435440D-06 -0.15310422D-04
  0.31815095D-05  0.28875947D-04 -0.60004288D-05  0.11658080D-05 -0.24225518D-06
 -0.48238833D-05  0.90979720D-05  0.36722880D-06  0.24642522D-05 -0.46477003D-05
 -0.18746755D-06 -0.95546677D-06  0.18023689D-05  0.71842038D-07 -0.74630470D-07
  0.12302715D-06 -0.48396683D-07 -0.19286580D-06  0.63854040D-06 -0.12098873D-05
MO    7     MO 0.0        OCC NO =    2.0000000  ORB. ENERGY =  -10.091069
  0.43812986D+00  0.81561939D+00  0.13416862D+01  0.18016594D+01  0.16963303D+01
  0.13939875D+00  0.37095050D+00  0.98568495D+00 -0.13287722D-02 -0.12916050D-05
 -0.12086241D-05 -0.93612606D-06 -0.36872284D-04 -0.34503373D-04 -0.26724196D-04
  0.87453629D-03  0.81835049D-03  0.63384409D-03  0.78384982D-02  0.80155459D-06
  0.21256973D-04 -0.50436034D-03 -0.13641883D-02  0.44645033D-07  0.71225724D-06
 -0.17059879D-04 -0.62298641D-03 -0.77019174D-07 -0.18172498D-05  0.43208126D-04
  0.82367614D-03  0.81955116D-03 -0.16432273D-02 -0.40908143D-06  0.89801583D-05
  0.20741865D-03  0.40602662D-04  0.73241410D-04  0.10797714D-03 -0.12242081D-02
  0.67324033D-03  0.14764442D-04 -0.13182410D-02 -0.19192697D-02 -0.29625819D-03
  0.40595836D-04  0.73229097D-04  0.10795899D-03 -0.12242434D-02  0.67325294D-03
  0.14755996D-04 -0.10117728D-02  0.21142002D-02 -0.12614802D-03  0.40617115D-04
  0.73267480D-04  0.10801558D-03 -0.12241472D-02  0.67321774D-03  0.14789505D-04
  0.23310145D-02 -0.16802290D-03 -0.21599568D-03 -0.51229875D-06 -0.95538113D-06
 -0.16077655D-05 -0.25314410D-05 -0.33578365D-05 -0.21874580D-05  0.11888716D-04
  0.20035260D-04  0.42698695D-05 -0.10459941D-03  0.18707600D-03 -0.23867373D-03
  0.20428534D-03 -0.15039541D-03  0.12823520D-03  0.12714188D-03 -0.28419103D-07
 -0.69848004D-06  0.16600831D-04 -0.38733190D-06 -0.51802879D-06 -0.59836322D-06
 -0.82600789D-05 -0.11047266D-04 -0.12760445D-04  0.19673788D-03  0.26312288D-03
  0.30392723D-03 -0.86420595D-06 -0.40761687D-06 -0.72037672D-07 -0.16447731D-04
 -0.77578416D-05 -0.13710346D-05  0.39251654D-03  0.18513685D-03  0.32719027D-04
  0.93366080D-07  0.19504618D-06  0.12428805D-06  0.16160178D-05  0.33759380D-05
  0.21512278D-05 -0.38635215D-04 -0.80710800D-04 -0.51430837D-04 -0.24174463D-06
 -0.31227823D-05  0.75167141D-04  0.12834418D-06  0.10088459D-05 -0.24701624D-04
  0.49435369D-07  0.18494630D-05 -0.43739509D-04 -0.75121063D-07 -0.21192954D-05
  0.50273848D-04 -0.10268126D-02 -0.76541667D-03 -0.35480591D-03 -0.82962202D-04
 -0.10214881D-02 -0.76144757D-03 -0.35296605D-03 -0.82531998D-04  0.20483007D-02
  0.15268642D-02  0.70777195D-03  0.16549420D-03  0.45484985D-06  0.33905860D-06
  0.15716929D-06  0.36749981D-07 -0.10563761D-04 -0.78745418D-05 -0.36502131D-05
 -0.85350810D-06 -0.25878205D-03 -0.19290384D-03 -0.89419819D-04 -0.20908516D-04
  0.99356694D-04  0.98842260D-04 -0.19819895D-03 -0.44015569D-07  0.10183864D-05
  0.25041829D-04 -0.26567787D-04 -0.26432048D-04  0.52999835D-04  0.11783741D-07
 -0.26653446D-06 -0.66985825D-05 -0.27409490D-05 -0.51184652D-05 -0.87130498D-05
 -0.13506687D-04 -0.18188149D-04 -0.13785481D-04  0.73689957D-06  0.17165446D-05
  0.41870562D-06 -0.56464090D-04  0.92144725D-04 -0.12158140D-03  0.12258335D-03
  0.58439650D-04 -0.19255248D-08  0.21398207D-07 -0.48372030D-06  0.56858929D-06
  0.72811513D-06  0.77907539D-06  0.61992042D-06  0.14267800D-06  0.13532632D-04
  0.17329405D-04  0.18542278D-04  0.14754331D-04  0.33957884D-05 -0.32179754D-03
 -0.41208243D-03 -0.44092378D-03 -0.35084879D-03 -0.80749728D-04 -0.49929327D-06
  0.10375326D-06 -0.11607828D-04  0.24121096D-05  0.27611549D-03 -0.57376867D-04
 -0.28614412D-06 -0.66267805D-05  0.15763947D-03  0.17560634D-06  0.40092016D-05
 -0.95390329D-04  0.87808448D-07  0.18770462D-05 -0.44705958D-04 -0.80060534D-04