 Single Point Energy
GAUSSIAN             31 MOL ORBITALS    210 PRIMITIVES        6 NUCLEI   B3LYP
  C    1    (CENTRE  1)   0.00020330  0.01556475  1.49635538  CHARGE =  6.0
  H    2    (CENTRE  2)  -1.05373923 -1.71572665  1.48203101  CHARGE =  1.0
  H    3    (CENTRE  3)  -0.97188907  1.79342699  1.44530512  CHARGE =  1.0
  H    4    (CENTRE  4)   2.02632464 -0.03202730  1.46477354  CHARGE =  1.0
  Br   5    (CENTRE  5)   0.00031459 -0.03427896 -3.27735419  CHARGE = 35.0
  Cl   6    (CENTRE  6)  -0.00076041  0.06239423  5.96100909  CHARGE = 17.0
CENTRE ASSIGNMENTS    1  1  1  1  1  1  1  1  1  1  1  1  1  1  1  1  1  1  1  1
CENTRE ASSIGNMENTS    1  1  1  1  1  1  1  1  1  1  1  1  1  1  1  1  2  2  2  2
CENTRE ASSIGNMENTS    2  2  2  2  2  3  3  3  3  3  3  3  3  3  4  4  4  4  4  4
CENTRE ASSIGNMENTS    4  4  4  5  5  5  5  5  5  5  5  5  5  5  5  5  5  5  5  5
CENTRE ASSIGNMENTS    5  5  5  5  5  5  5  5  5  5  5  5  5  5  5  5  5  5  5  5
CENTRE ASSIGNMENTS    5  5  5  5  5  5  5  5  5  5  5  5  5  5  5  5  5  5  5  5
CENTRE ASSIGNMENTS    5  5  5  5  5  5  5  5  5  5  5  5  5  5  5  5  5  5  5  5
CENTRE ASSIGNMENTS    5  5  5  5  5  5  5  5  5  5  5  5  5  5  5  5  5  6  6  6
CENTRE ASSIGNMENTS    6  6  6  6  6  6  6  6  6  6  6  6  6  6  6  6  6  6  6  6
CENTRE ASSIGNMENTS    6  6  6  6  6  6  6  6  6  6  6  6  6  6  6  6  6  6  6  6
CENTRE ASSIGNMENTS    6  6  6  6  6  6  6  6  6  6
TYPE ASSIGNMENTS      1  1  1  1  1  1  1  1  1  2  2  2  3  3  3  4  4  4  1  2
TYPE ASSIGNMENTS      3  4  1  2  3  4  1  2  3  4  5  6  7  8  9 10  1  1  1  1
TYPE ASSIGNMENTS      1  1  2  3  4  1  1  1  1  1  1  2  3  4  1  1  1  1  1  1
TYPE ASSIGNMENTS      2  3  4  1  1  1  1  1  1  1  1  1  1  1  1  1  1  1  1  2
TYPE ASSIGNMENTS      3  4  2  2  2  3  3  3  4  4  4  2  2  2  3  3  3  4  4  4
TYPE ASSIGNMENTS      2  2  2  3  3  3  4  4  4  2  3  4  2  3  4  2  3  4  2  3
TYPE ASSIGNMENTS      4  5  5  5  5  6  6  6  6  7  7  7  7  8  8  8  8  9  9  9
TYPE ASSIGNMENTS      9 10 10 10 10  5  6  7  8  9 10  5  6  7  8  9 10  1  1  1
TYPE ASSIGNMENTS      1  1  1  1  1  1  1  1  1  1  1  2  3  4  2  2  2  2  2  3
TYPE ASSIGNMENTS      3  3  3  3  4  4  4  4  4  2  2  3  3  4  4  2  3  4  2  3
TYPE ASSIGNMENTS      4  2  3  4  5  6  7  8  9 10
EXPONENTS  0.4563240D+04 0.6820240D+03 0.1549730D+03 0.4445530D+02 0.1302900D+02
EXPONENTS  0.1827730D+01 0.2096420D+02 0.4803310D+01 0.1459330D+01 0.2096420D+02
EXPONENTS  0.4803310D+01 0.1459330D+01 0.2096420D+02 0.4803310D+01 0.1459330D+01
EXPONENTS  0.2096420D+02 0.4803310D+01 0.1459330D+01 0.4834560D+00 0.4834560D+00
EXPONENTS  0.4834560D+00 0.4834560D+00 0.1455850D+00 0.1455850D+00 0.1455850D+00
EXPONENTS  0.1455850D+00 0.4380000D-01 0.4380000D-01 0.4380000D-01 0.4380000D-01
EXPONENTS  0.6260000D+00 0.6260000D+00 0.6260000D+00 0.6260000D+00 0.6260000D+00
EXPONENTS  0.6260000D+00 0.3386500D+02 0.5094790D+01 0.1158790D+01 0.3258400D+00
EXPONENTS  0.1027410D+00 0.3600000D-01 0.7500000D+00 0.7500000D+00 0.7500000D+00
EXPONENTS  0.3386500D+02 0.5094790D+01 0.1158790D+01 0.3258400D+00 0.1027410D+00
EXPONENTS  0.3600000D-01 0.7500000D+00 0.7500000D+00 0.7500000D+00 0.3386500D+02
EXPONENTS  0.5094790D+01 0.1158790D+01 0.3258400D+00 0.1027410D+00 0.3600000D-01
EXPONENTS  0.7500000D+00 0.7500000D+00 0.7500000D+00 0.4397000D+06 0.6603000D+05
EXPONENTS  0.1514000D+05 0.4317000D+04 0.1414000D+04 0.5239000D+03 0.5239000D+03
EXPONENTS  0.2077000D+03 0.8654000D+02 0.3052000D+02 0.1298000D+02 0.4412000D+01
EXPONENTS  0.1862000D+01 0.3932000D+00 0.1400000D+00 0.3500000D-01 0.3500000D-01
EXPONENTS  0.3500000D-01 0.3500000D-01 0.2957000D+04 0.7003000D+03 0.2246000D+03
EXPONENTS  0.2957000D+04 0.7003000D+03 0.2246000D+03 0.2957000D+04 0.7003000D+03
EXPONENTS  0.2246000D+03 0.8259000D+02 0.3319000D+02 0.1420000D+02 0.8259000D+02
EXPONENTS  0.3319000D+02 0.1420000D+02 0.8259000D+02 0.3319000D+02 0.1420000D+02
EXPONENTS  0.1420000D+02 0.7438000D+01 0.3526000D+01 0.1420000D+02 0.7438000D+01
EXPONENTS  0.3526000D+01 0.1420000D+02 0.7438000D+01 0.3526000D+01 0.1595000D+01
EXPONENTS  0.1595000D+01 0.1595000D+01 0.8462000D+00 0.8462000D+00 0.8462000D+00
EXPONENTS  0.3186000D+00 0.3186000D+00 0.3186000D+00 0.1096000D+00 0.1096000D+00
EXPONENTS  0.1096000D+00 0.1348000D+03 0.3639000D+02 0.1216000D+02 0.4341000D+01
EXPONENTS  0.1348000D+03 0.3639000D+02 0.1216000D+02 0.4341000D+01 0.1348000D+03
EXPONENTS  0.3639000D+02 0.1216000D+02 0.4341000D+01 0.1348000D+03 0.3639000D+02
EXPONENTS  0.1216000D+02 0.4341000D+01 0.1348000D+03 0.3639000D+02 0.1216000D+02
EXPONENTS  0.4341000D+01 0.1348000D+03 0.3639000D+02 0.1216000D+02 0.4341000D+01
EXPONENTS  0.1535000D+01 0.1535000D+01 0.1535000D+01 0.1535000D+01 0.1535000D+01
EXPONENTS  0.1535000D+01 0.4510000D+00 0.4510000D+00 0.4510000D+00 0.4510000D+00
EXPONENTS  0.4510000D+00 0.4510000D+00 0.1058190D+06 0.1587200D+05 0.3619650D+04
EXPONENTS  0.1030800D+04 0.3399080D+03 0.1245380D+03 0.1245380D+03 0.4951350D+02
EXPONENTS  0.2080560D+02 0.6583460D+01 0.2564680D+01 0.5597630D+00 0.1832730D+00
EXPONENTS  0.4830000D-01 0.4830000D-01 0.4830000D-01 0.4830000D-01 0.5897760D+03
EXPONENTS  0.1398490D+03 0.4514130D+02 0.1687330D+02 0.2771520D+01 0.5897760D+03
EXPONENTS  0.1398490D+03 0.4514130D+02 0.1687330D+02 0.2771520D+01 0.5897760D+03
EXPONENTS  0.1398490D+03 0.4514130D+02 0.1687330D+02 0.2771520D+01 0.6741100D+01
EXPONENTS  0.2771520D+01 0.6741100D+01 0.2771520D+01 0.6741100D+01 0.2771520D+01
EXPONENTS  0.1023870D+01 0.1023870D+01 0.1023870D+01 0.3813680D+00 0.3813680D+00
EXPONENTS  0.3813680D+00 0.1094370D+00 0.1094370D+00 0.1094370D+00 0.7500000D+00
EXPONENTS  0.7500000D+00 0.7500000D+00 0.7500000D+00 0.7500000D+00 0.7500000D+00
MO    1     MO 0.0        OCC NO =    2.0000000  ORB. ENERGY = -482.611538
 -0.25867064D-06 -0.48153941D-06 -0.79212779D-06 -0.10636947D-05 -0.10015086D-05
 -0.82300632D-07  0.64537074D-06  0.17148709D-05 -0.23117658D-08 -0.10017563D-09
 -0.93739707D-10 -0.72605026D-10  0.10880229D-07  0.10181214D-07  0.78857437D-08
  0.10390475D-05  0.97229249D-06  0.75307811D-06 -0.25269057D-05  0.45327152D-09
  0.35414761D-09  0.46731459D-07  0.30980536D-05  0.37241581D-09 -0.21646155D-07
 -0.20658916D-05  0.34193572D-05  0.32603440D-09 -0.28440200D-07 -0.27181715D-05
 -0.11389400D-05 -0.11392905D-05  0.22782305D-05  0.14109037D-09 -0.43824981D-09
  0.71456218D-07 -0.10165573D-06 -0.18337243D-06 -0.27033929D-06  0.18716349D-06
 -0.20391282D-05 -0.10265094D-05  0.45799388D-06  0.75856657D-06  0.56136230D-06
 -0.10168412D-06 -0.18342365D-06 -0.27041481D-06  0.18740113D-06 -0.20391023D-05
 -0.10266101D-05  0.42258888D-06 -0.76745709D-06  0.57686133D-06 -0.10157210D-06
 -0.18322157D-06 -0.27011689D-06  0.18642709D-06 -0.20392806D-05 -0.10262498D-05
 -0.87994562D-06  0.26526047D-07  0.57031825D-06  0.38584359D+01  0.71955608D+01
  0.12109067D+02  0.19065833D+02  0.25289924D+02  0.16475087D+02  0.96359558D+01
  0.16238833D+02  0.34607836D+01  0.81725152D-01 -0.11311675D-01  0.24868604D-02
 -0.64366257D-03  0.71910391D-04 -0.22756928D-04 -0.13024225D-05 -0.64633786D-10
 -0.12740089D-08 -0.12365078D-06  0.29642425D-07  0.39644629D-07  0.45792606D-07
  0.74188277D-05  0.99221529D-05  0.11460852D-04  0.71138246D-03  0.95142329D-03
  0.10989673D-02  0.37921816D-08  0.17886445D-08  0.31610513D-09  0.99566076D-06
  0.46961968D-06  0.82995360D-07  0.95530877D-04  0.45058701D-04  0.79631736D-05
 -0.33591597D-09 -0.70174443D-09 -0.44716820D-09 -0.38195543D-07 -0.79792305D-07
 -0.50845550D-07 -0.36685863D-05 -0.76638512D-05 -0.48835878D-05  0.11085822D-08
  0.11439751D-06  0.10989461D-04 -0.81374254D-09 -0.89524593D-07 -0.85985252D-05
  0.29121217D-09  0.43414312D-07  0.41672098D-05 -0.10623285D-09 -0.31778020D-07
 -0.30477146D-05  0.35187904D-04  0.26230110D-04  0.12158865D-04  0.28430367D-05
  0.35177679D-04  0.26222487D-04  0.12155332D-04  0.28422105D-05 -0.70365583D-04
 -0.52452598D-04 -0.24314197D-04 -0.56852472D-05 -0.69971234D-09 -0.52158638D-09
 -0.24177933D-09 -0.56533855D-10 -0.20113981D-07 -0.14993559D-07 -0.69502059D-08
 -0.16251262D-08 -0.21978027D-05 -0.16383075D-05 -0.75943103D-06 -0.17757334D-06
 -0.34504932D-05 -0.34495031D-05  0.68999963D-05  0.49728042D-10  0.16969846D-08
  0.21559253D-06  0.89718428D-06  0.89692904D-06 -0.17941133D-05 -0.12276101D-10
 -0.41526379D-09 -0.56064605D-07  0.17042044D-06  0.31824418D-06  0.54174001D-06
  0.83978780D-06  0.11308610D-05  0.85712197D-06 -0.61973625D-06 -0.14436226D-05
 -0.35213354D-06  0.22885709D-05 -0.21468783D-05  0.14581373D-05 -0.17523313D-05
  0.69034604D-05  0.30605944D-09 -0.94853738D-08 -0.90166280D-06 -0.25207102D-08
 -0.32279314D-08 -0.34538520D-08 -0.27482750D-08 -0.63253021D-09  0.72265003D-07
  0.92539981D-07  0.99016788D-07  0.78788946D-07  0.18133698D-07  0.68624621D-05
  0.87878238D-05  0.94028772D-05  0.74819917D-05  0.17220205D-05  0.22478051D-08
 -0.46709444D-09 -0.64314255D-07  0.13364518D-07 -0.61073526D-05  0.12691094D-05
  0.55072647D-09 -0.15912008D-07 -0.15111193D-05 -0.26957098D-09  0.84863180D-08
  0.80649684D-06  0.19229034D-09 -0.10064639D-07 -0.95969432D-06 -0.50482162D-06
 -0.50461373D-06  0.10094353D-05 -0.16396262D-10 -0.99328473D-09  0.31853772D-07
MO    2     MO 0.0        OCC NO =    2.0000000  ORB. ENERGY = -101.326375
 -0.74213626D-06 -0.13815555D-05 -0.22726459D-05 -0.30517820D-05 -0.28733678D-05
 -0.23612376D-06  0.20334756D-05  0.54033254D-05 -0.72840601D-08  0.39761631D-09
  0.37207090D-09  0.28818330D-09  0.30377117D-07  0.28425497D-07  0.22016646D-07
  0.29206457D-05  0.27330048D-05  0.21168178D-05 -0.15450994D-04  0.38488806D-08
 -0.13145663D-06 -0.12514285D-04  0.28541311D-04 -0.34051149D-08  0.23316073D-06
  0.22255950D-04 -0.32000777D-04  0.27896567D-08 -0.16228325D-06 -0.15484451D-04
 -0.58684157D-05 -0.58685221D-05  0.11736938D-04  0.27971355D-09 -0.88621078D-08
  0.36967552D-06  0.18734492D-05  0.33794350D-05  0.49821780D-05 -0.15872823D-04
  0.18973173D-05 -0.24812384D-05 -0.12489207D-05 -0.21833301D-05 -0.12280223D-04
  0.18733476D-05  0.33792518D-05  0.49819078D-05 -0.15872568D-04  0.18976813D-05
 -0.24818206D-05 -0.11512903D-05  0.19806568D-05 -0.12322760D-04  0.18739291D-05
  0.33803007D-05  0.49834542D-05 -0.15874097D-04  0.18956805D-05 -0.24789621D-05
  0.24114035D-05 -0.18517518D-06 -0.12305092D-04  0.86124710D-07  0.16061316D-06
  0.27028825D-06  0.42557124D-06  0.56450009D-06  0.36774282D-06 -0.29777401D-05
 -0.50181865D-05 -0.10694646D-05  0.18101204D-04 -0.25490224D-04  0.24017111D-04
 -0.16284139D-04  0.81061692D-05 -0.82859684D-05 -0.88555420D-05 -0.41843162D-09
 -0.10569149D-07 -0.10226124D-05 -0.26447033D-08 -0.35371020D-08 -0.40856257D-08
 -0.16241584D-06 -0.21721960D-06 -0.25090539D-06 -0.15630498D-04 -0.20904677D-04
 -0.24146514D-04  0.85261430D-08  0.40214948D-08  0.71071427D-09  0.50448793D-06
  0.23794998D-06  0.42052634D-07  0.48558438D-04  0.22903382D-04  0.40476889D-05
 -0.10458805D-08 -0.21848941D-08 -0.13922664D-08 -0.62564105D-07 -0.13069939D-06
 -0.83284752D-07 -0.60216699D-05 -0.12579555D-04 -0.80159907D-05  0.38376941D-08
  0.23697456D-06  0.22805030D-04 -0.29365354D-08 -0.18655226D-06 -0.17950475D-04
  0.10830176D-08  0.63421827D-07  0.61046436D-05 -0.55384388D-09  0.16705374D-08
  0.14658910D-06 -0.12703434D-03 -0.94695170D-04 -0.43895576D-04 -0.10263847D-04
 -0.12698765D-03 -0.94660369D-04 -0.43879444D-04 -0.10260075D-04  0.25402198D-03
  0.18935554D-03  0.87775020D-04  0.20523923D-04 -0.16167208D-08 -0.12051517D-08
 -0.55864338D-09 -0.13062433D-09 -0.48705312D-07 -0.36306388D-07 -0.16829684D-07
 -0.39351872D-08  0.79648971D-05  0.59372711D-05  0.27521988D-05  0.64353065D-06
  0.10294999D-04  0.10291244D-04 -0.20586243D-04  0.12384473D-09  0.38050166D-08
 -0.64544844D-06 -0.29898339D-05 -0.29887761D-05  0.59786100D-05 -0.27917968D-10
 -0.96943501D-09  0.18741495D-06  0.12702097D+01  0.23719974D+01  0.40377986D+01
  0.62592645D+01  0.84287459D+01  0.63884628D+01  0.23318198D+01  0.54317749D+01
  0.13249378D+01  0.43886872D-01 -0.56814918D-02  0.66395876D-03 -0.19262452D-03
  0.73088675D-04  0.29970943D-08 -0.14621347D-06 -0.13939848D-04  0.91232936D-07
  0.11682964D-06  0.12500646D-06  0.99469267D-07  0.22893384D-07 -0.31571213D-05
 -0.40428968D-05 -0.43258562D-05 -0.34421401D-05 -0.79222697D-06 -0.30039494D-03
 -0.38467503D-03 -0.41159816D-03 -0.32751401D-03 -0.75379102D-04 -0.14808083D-07
  0.30771233D-08  0.54475367D-06 -0.11319995D-06  0.51831416D-04 -0.10770581D-04
 -0.66729894D-08  0.23587949D-06  0.22444547D-04  0.19844658D-08 -0.84367966D-07
 -0.80371803D-05 -0.33137840D-08  0.16080401D-06  0.15330828D-04  0.77159676D-05
  0.77134971D-05 -0.15429465D-04  0.90627550D-10  0.10320623D-07 -0.48559787D-06
MO    3     MO 0.0        OCC NO =    2.0000000  ORB. ENERGY =  -62.264604
 -0.26098338D-05 -0.48584478D-05 -0.79921009D-05 -0.10732050D-04 -0.10104630D-04
 -0.83036470D-06  0.77713830D-05  0.20650020D-04 -0.27837669D-07 -0.14796766D-08
 -0.13846128D-08 -0.10724361D-08  0.15478015D-06  0.14483608D-06  0.11218115D-06
  0.14780183D-04  0.13830610D-04  0.10712342D-04 -0.34975247D-04  0.62791817D-08
  0.35817380D-08  0.52083892D-06  0.43435521D-04  0.52414043D-08 -0.30340231D-06
 -0.28955929D-04  0.49065167D-04  0.46286353D-08 -0.40363432D-06 -0.38577366D-04
 -0.15829083D-04 -0.15834008D-04  0.31663092D-04  0.19741268D-08 -0.60064339D-08
  0.99308670D-06 -0.14582623D-05 -0.26304971D-05 -0.38780461D-05  0.27742527D-05
 -0.29047760D-04 -0.14698696D-04  0.63555009D-05  0.10525208D-04  0.76695341D-05
 -0.14586540D-05 -0.26312036D-05 -0.38790877D-05  0.27775733D-05 -0.29047380D-04
 -0.14700134D-04  0.58642016D-05 -0.10651114D-04  0.78845588D-05 -0.14571127D-05
 -0.26284234D-05 -0.38749890D-05  0.27639907D-05 -0.29049976D-04 -0.14694983D-04
 -0.12210769D-04  0.36683817D-06  0.77939814D-05 -0.12742140D+01 -0.23762697D+01
 -0.39989112D+01 -0.62963211D+01 -0.83517715D+01 -0.54407503D+01 -0.53840012D+01
 -0.90732978D+01 -0.19336808D+01  0.58199475D+01  0.24291312D+01  0.10316437D+00
 -0.10977286D-01  0.10411485D-02 -0.32578214D-03 -0.18295632D-04 -0.92204999D-09
 -0.18182660D-07 -0.17646844D-05  0.72373267D-07  0.96794082D-07  0.11180463D-06
  0.18259943D-03  0.24421371D-03  0.28208567D-03  0.17512846D-01  0.23422182D-01
  0.27054427D-01  0.12747150D-06  0.60124016D-07  0.10625650D-07  0.25527711D-03
  0.12040562D-03  0.21279151D-04  0.24483536D-01  0.11548060D-01  0.20408757D-02
 -0.37606381D-08 -0.78561516D-08 -0.50061262D-08  0.29469341D-06  0.61562854D-06
  0.39229311D-06  0.28201740D-04  0.58914775D-04  0.37541892D-04  0.15060363D-07
  0.10113411D-05  0.97304790D-04 -0.10967425D-07 -0.10598824D-05 -0.10185680D-03
  0.39798227D-08  0.59095864D-06  0.56729671D-04 -0.14842943D-08 -0.44683444D-06
 -0.42854657D-04 -0.11286558D-02 -0.84133358D-03 -0.38999689D-03 -0.91190706D-04
 -0.11283609D-02 -0.84111375D-03 -0.38989499D-03 -0.91166879D-04  0.22570167D-02
  0.16824473D-02  0.77989189D-03  0.18235759D-03 -0.23817719D-07 -0.17754436D-07
 -0.82299995D-08 -0.19243729D-08  0.15053712D-07  0.11221484D-07  0.52016752D-08
  0.12162775D-08  0.70672170D-04  0.52681137D-04  0.24420135D-04  0.57100182D-05
 -0.34238869D-04 -0.34228099D-04  0.68466968D-04  0.84105118D-09  0.21340859D-07
  0.21377852D-05  0.11742197D-04  0.11738798D-04 -0.23480994D-04 -0.17821706D-09
 -0.56896339D-08 -0.73367313D-06  0.50865325D-06  0.94986223D-06  0.16169294D-05
  0.25065115D-05  0.33752766D-05  0.25582488D-05 -0.52249457D-05 -0.12171064D-04
 -0.29688091D-05  0.27492725D-04 -0.27918659D-04  0.20289798D-04 -0.24904235D-04
  0.97948132D-04  0.43464402D-08 -0.13470697D-06 -0.12804995D-04 -0.28689733D-07
 -0.36739047D-07 -0.39310387D-07 -0.31279786D-07 -0.71992103D-08  0.82527574D-06
  0.10568186D-05  0.11307846D-05  0.89978001D-06  0.20708919D-06  0.78373155D-04
  0.10036186D-03  0.10738612D-03  0.85448530D-04  0.19666437D-04  0.23549545D-07
 -0.48936012D-08 -0.67744396D-06  0.14077302D-06 -0.64334683D-04  0.13368763D-04
  0.69712909D-08 -0.20249972D-06 -0.19231836D-04 -0.36783940D-08  0.11693710D-06
  0.11114053D-04  0.26929795D-08 -0.14178386D-06 -0.13519923D-04 -0.70372726D-05
 -0.70343725D-05  0.14071645D-04 -0.22888967D-09 -0.13822333D-07  0.44403826D-06
MO    4     MO 0.0        OCC NO =    2.0000000  ORB. ENERGY =  -56.083321
 -0.71399441D-06 -0.13291669D-05 -0.21864670D-05 -0.29360582D-05 -0.27644095D-05
 -0.22716993D-06  0.18525478D-05  0.49225663D-05 -0.66359633D-08  0.77533201D-08
  0.72551974D-08  0.56194308D-08  0.56163380D-06  0.52555086D-06  0.40705946D-06
  0.54060427D-04  0.50587240D-04  0.39181773D-04 -0.28177656D-04 -0.75054874D-08
  0.19346739D-06  0.18307173D-04  0.71790326D-04 -0.48113553D-09 -0.32802259D-06
 -0.31474680D-04  0.96640870D-05 -0.39121596D-08  0.47393500D-06  0.45324187D-04
 -0.78235170D-05 -0.78084173D-05  0.15631934D-04 -0.21083266D-08  0.14171892D-07
  0.48501593D-06  0.10268882D-04  0.18523599D-04  0.27308667D-04 -0.67590069D-04
  0.15913271D-05 -0.87994593D-05 -0.22683104D-04 -0.36538353D-04  0.68891205D-04
  0.10268061D-04  0.18522116D-04  0.27306482D-04 -0.67594488D-04  0.15923964D-05
 -0.87997977D-05 -0.20924022D-04  0.38988837D-04  0.68102698D-04  0.10271423D-04
  0.18528181D-04  0.27315422D-04 -0.67579075D-04  0.15873499D-05 -0.87978201D-05
  0.43593551D-04 -0.30221549D-06  0.68514217D-04  0.27692226D-03  0.51642972D-03
  0.86907502D-03  0.13683663D-02  0.18150731D-02  0.11824269D-02  0.11900411D-02
  0.20054969D-02  0.42740698D-03 -0.13656931D-02 -0.44259901D-03 -0.97665606D-04
  0.57726158D-04 -0.18992130D-04  0.12899941D-04  0.73218365D-04 -0.14161151D-10
  0.32242242D-07  0.30903973D-05  0.28776275D-02  0.38486215D-02  0.44454548D-02
  0.91468563D+00  0.12233268D+01  0.14130368D+01  0.87706814D+02  0.11730161D+03
  0.13549241D+03  0.37001775D-02  0.17452492D-02  0.30843594D-03  0.11761312D+01
  0.55474151D+00  0.98038844D-01  0.11277614D+03  0.53192713D+02  0.94006885D+01
  0.32847397D-05  0.68619773D-05  0.43726147D-05  0.10452287D-02  0.21835325D-02
  0.13913987D-02  0.10022414D+00  0.20937299D+00  0.13341744D+00 -0.12223616D-05
 -0.39273659D-03 -0.37658072D-01  0.33755320D-06  0.11061836D-03  0.10606608D-01
 -0.32745095D-07 -0.11568247D-04 -0.11091568D-02  0.36167672D-08  0.12547731D-05
  0.12030882D-03 -0.82681051D-03 -0.61632914D-03 -0.28569696D-03 -0.66802860D-04
 -0.82651348D-03 -0.61610772D-03 -0.28559433D-03 -0.66778861D-04  0.16533240D-02
  0.12324369D-02  0.57129129D-03  0.13358172D-03 -0.67854115D-08 -0.50580475D-08
 -0.23446381D-08 -0.54823310D-09  0.27744038D-06  0.20681231D-06  0.95867038D-07
  0.22416032D-07  0.51662296D-04  0.38510611D-04  0.17851443D-04  0.41740992D-05
 -0.26970629D-04 -0.26964132D-04  0.53934761D-04  0.45532737D-09 -0.13028236D-07
  0.16918026D-05  0.10385267D-04  0.10382465D-04 -0.20767732D-04 -0.79444448D-10
  0.36488043D-08 -0.65112015D-06 -0.31327658D-06 -0.58501462D-06 -0.99585741D-06
 -0.15437459D-05 -0.20788132D-05 -0.15756105D-05  0.34899176D-05  0.81294647D-05
  0.19829678D-05 -0.18842563D-04  0.19449426D-04 -0.15357852D-04  0.16122993D-04
 -0.87107771D-04 -0.49632669D-08  0.12644654D-06  0.11998825D-04  0.77812242D-08
  0.99643577D-08  0.10661756D-07  0.84836978D-08  0.19525685D-08 -0.40556409D-06
 -0.51935089D-06 -0.55569988D-06 -0.44217763D-06 -0.10176955D-06 -0.38684055D-04
 -0.49537419D-04 -0.53004507D-04 -0.42176376D-04 -0.97071187D-05 -0.60751426D-08
  0.12624161D-08  0.32293680D-06 -0.67106346D-07  0.30805370D-04 -0.64013635D-05
 -0.22254434D-08  0.10744824D-06  0.10245597D-04  0.14340742D-08 -0.65138362D-07
 -0.62110209D-05  0.24963300D-10  0.27875411D-07  0.26754255D-05 -0.16976644D-05
 -0.16968054D-05  0.33944698D-05 -0.33248254D-10  0.71894629D-09  0.10626572D-06
MO    5     MO 0.0        OCC NO =    2.0000000  ORB. ENERGY =  -56.081854
  0.65344597D-09  0.12164503D-08  0.20010493D-08  0.26870734D-08  0.25299809D-08
  0.20790537D-09 -0.20773451D-08 -0.55198948D-08  0.74412039D-11 -0.26518100D-06
 -0.24814408D-06 -0.19219718D-06  0.27349666D-07  0.25592549D-07  0.19822418D-07
 -0.48832136D-08 -0.45694848D-08 -0.35392426D-08  0.68928295D-08  0.60627179D-05
 -0.67068191D-06  0.78425608D-08 -0.75380734D-08  0.10978204D-04 -0.12207964D-05
  0.16477655D-07  0.15685975D-07 -0.44931438D-05  0.49949523D-06  0.23214037D-08
  0.10781549D-04 -0.10765542D-04 -0.16006505D-07  0.78126869D-06 -0.91677200D-05
  0.12438670D-05  0.25066042D-06  0.45215563D-06  0.66659658D-06  0.53230453D-05
  0.69003723D-05 -0.12012848D-04 -0.49188239D-05  0.12015411D-04 -0.10907471D-04
  0.34074598D-06  0.61465714D-06  0.90616664D-06  0.72239898D-05  0.93713558D-05
 -0.16311004D-04 -0.32552428D-05 -0.13997981D-04 -0.14490903D-04 -0.59147185D-06
 -0.10669308D-05 -0.15729373D-05 -0.12539502D-04 -0.16268633D-04  0.28312561D-04
  0.18407391D-04  0.84786021D-06  0.25398886D-04 -0.80567056D-08 -0.15024875D-07
 -0.25284647D-07 -0.39810901D-07 -0.52807273D-07 -0.34401227D-07 -0.32082811D-07
 -0.54067019D-07 -0.11522642D-07  0.29811659D-07  0.24728937D-07 -0.10200200D-07
  0.80750822D-08 -0.60151903D-08  0.61742460D-08  0.11856432D-07 -0.84163428D-05
  0.93562710D-06 -0.79239355D-08  0.87176857D+02  0.11659283D+03  0.13467371D+03
 -0.96900699D+01 -0.12959777D+02 -0.14969543D+02  0.98196527D-01  0.13133085D+00
  0.15169726D+00  0.11209358D+03  0.52870771D+02  0.93437920D+01 -0.12459667D+02
 -0.58768059D+01 -0.10386013D+01  0.12626290D+00  0.59553965D-01  0.10524905D-01
  0.99440126D-01  0.20773515D+00  0.13237377D+00 -0.11053183D-01 -0.23090625D-01
 -0.14713894D-01  0.11200647D-03  0.23398683D-03  0.14910196D-03 -0.37006362D-01
  0.41134115D-02 -0.41672275D-04  0.10245809D-01 -0.11388650D-02  0.11532555D-04
 -0.10121675D-02  0.11250702D-03 -0.11386300D-05  0.10208989D-03 -0.11347871D-04
  0.11721332D-06 -0.91202091D-08 -0.67984750D-08 -0.31514065D-08 -0.73687506D-09
 -0.50064301D-05 -0.37319418D-05 -0.17299270D-05 -0.40449878D-06  0.50155503D-05
  0.37387403D-05  0.17330785D-05  0.40523566D-06  0.44760671D-04  0.33365935D-04
  0.15466649D-04  0.36164765D-05  0.42933498D-02  0.32003906D-02  0.14835286D-02
  0.34688486D-03 -0.47717715D-03 -0.35570203D-03 -0.16488429D-03 -0.38553934D-04
  0.26717974D-06 -0.21198415D-06 -0.55195595D-07 -0.38141604D-06 -0.38510162D-04
  0.42857451D-05 -0.87859540D-07  0.82929260D-07  0.49302799D-08  0.13668146D-07
  0.19607434D-05 -0.21980139D-06 -0.47897313D-10 -0.89443737D-10 -0.15225809D-09
 -0.23602556D-09 -0.31783278D-09 -0.24089739D-09  0.53254282D-09  0.12405130D-08
  0.30259031D-09 -0.29038885D-08  0.30615322D-08 -0.27465294D-08  0.42644647D-08
 -0.21701567D-07 -0.75344021D-06  0.83942095D-07  0.23951721D-08 -0.41594001D-04
 -0.53263792D-04 -0.56991687D-04 -0.45349026D-04 -0.10437321D-04  0.46259102D-05
  0.59237754D-05  0.63383761D-05  0.50435283D-05  0.11607951D-05 -0.89034842D-07
 -0.11401484D-06 -0.12199465D-06 -0.97072732D-07 -0.22341809D-07  0.33386994D-04
 -0.69378256D-05 -0.37131716D-05  0.77159796D-06  0.71347192D-07 -0.14825964D-07
  0.10526288D-04 -0.11706828D-05  0.22731845D-07 -0.53895371D-05  0.59941045D-06
 -0.12045405D-07  0.21883426D-05 -0.24344676D-06  0.59941109D-08 -0.24442321D-07
  0.29246177D-07 -0.48038561D-08 -0.23422435D-07 -0.20459679D-05  0.22688231D-06
MO    6     MO 0.0        OCC NO =    2.0000000  ORB. ENERGY =  -56.081854
 -0.99184129D-10 -0.18464046D-09 -0.30373182D-09 -0.40786086D-09 -0.38401638D-09
 -0.31557182D-10  0.31819208D-09  0.84549592D-09 -0.11397876D-11 -0.30503705D-07
 -0.28543952D-07 -0.22108394D-07 -0.25571173D-06 -0.23928318D-06 -0.18533407D-06
  0.32203280D-08  0.30134336D-08  0.23340208D-08 -0.10707564D-08  0.67557151D-06
  0.60483454D-05 -0.63274636D-07  0.12353019D-08  0.12201274D-05  0.10980819D-04
 -0.11510964D-06 -0.18535323D-08 -0.49948688D-06 -0.44930603D-05  0.45775188D-07
  0.44005723D-06 -0.53615599D-06  0.96098763D-07 -0.21559547D-04 -0.79270540D-06
 -0.91538066D-05  0.53873234D-06  0.97179628D-06  0.14326839D-05  0.11407112D-04
  0.14806970D-04 -0.25766067D-04  0.12881570D-04  0.11493927D-04 -0.23237564D-04
 -0.48706550D-06 -0.87859668D-06 -0.12952831D-05 -0.10308126D-04 -0.13382927D-04
  0.23286732D-04 -0.13085312D-04  0.10285238D-04  0.20784520D-04 -0.51703875D-07
 -0.93266414D-07 -0.13749928D-06 -0.10999955D-05 -0.14249101D-05  0.24808761D-05
  0.13427934D-05 -0.11558649D-04  0.23477807D-05 -0.15990740D-08 -0.29820981D-08
 -0.50184310D-08 -0.79015642D-08 -0.10481050D-07 -0.68278661D-08 -0.70108136D-08
 -0.11814856D-07 -0.25179556D-08  0.92743967D-08  0.73363373D-09  0.21119253D-08
 -0.15914677D-08  0.10348425D-08 -0.97609991D-09 -0.18323774D-08 -0.93551492D-06
 -0.84163806D-05  0.87556991D-07  0.96905670D+01  0.12960442D+02  0.14970311D+02
  0.87172114D+02  0.11658648D+03  0.13466638D+03 -0.90942724D+00 -0.12162941D+01
 -0.14049135D+01  0.12460306D+02  0.58771073D+01  0.10386546D+01  0.11208748D+03
  0.52867894D+02  0.93432836D+01 -0.11693580D+01 -0.55154683D+00 -0.97474253D-01
  0.11053751D-01  0.23091810D-01  0.14714649D-01  0.99434718D-01  0.20772385D+00
  0.13236657D+00 -0.10373567D-02 -0.21670875D-02 -0.13809196D-02 -0.41136226D-02
 -0.37004359D-01  0.38604717D-03  0.11389229D-02  0.10245259D-01 -0.10688258D-03
 -0.11251230D-03 -0.10121150D-02  0.10558720D-04  0.11348223D-04  0.10208528D-03
 -0.10653492D-05  0.11345658D-07  0.84573905D-08  0.39203903D-08  0.91668207D-09
  0.44770720D-04  0.33373426D-04  0.15470121D-04  0.36172885D-05 -0.44782066D-04
 -0.33381883D-04 -0.15474042D-04 -0.36182052D-05  0.48465230D-05  0.36127423D-05
  0.16746726D-05  0.39157895D-06  0.47724247D-03  0.35575073D-03  0.16490686D-03
  0.38559212D-04  0.42926605D-02  0.31998767D-02  0.14832904D-02  0.34682916D-03
  0.10698556D-07 -0.41323317D-06  0.40253462D-06 -0.55737453D-06 -0.42750190D-05
 -0.38504801D-04 -0.34596193D-08  0.24249943D-07 -0.20790324D-07  0.17379700D-06
  0.21606345D-06  0.19609053D-05  0.78362623D-11  0.14633485D-10  0.24910257D-10
  0.38615072D-10  0.51999182D-10  0.39412131D-10 -0.87129984D-10 -0.20296185D-09
 -0.49507172D-10  0.47498786D-09 -0.50045031D-09  0.44393110D-09 -0.64722120D-09
  0.30977906D-08 -0.83683729D-07 -0.75422821D-06  0.74101874D-08 -0.46223885D-05
 -0.59192655D-05 -0.63335506D-05 -0.50396886D-05 -0.11599113D-05 -0.41607949D-04
 -0.53281653D-04 -0.57010797D-04 -0.45364233D-04 -0.10440821D-04  0.43997121D-06
  0.56341142D-06  0.60284418D-06  0.47969095D-06  0.11040344D-06  0.37103312D-05
 -0.77100773D-06  0.33398241D-04 -0.69401627D-05 -0.35314103D-06  0.73382792D-07
  0.11697996D-05  0.10529787D-04 -0.11137322D-06 -0.59893753D-06 -0.53913999D-05
  0.57076279D-07  0.24315535D-06  0.21894750D-05 -0.23316862D-07 -0.12103046D-08
 -0.20454489D-07  0.21664793D-07  0.48870430D-07 -0.22791215D-06 -0.20460682D-05
MO    7     MO 0.0        OCC NO =    2.0000000  ORB. ENERGY =  -10.091519
  0.43812618D+00  0.81561255D+00  0.13416750D+01  0.18016443D+01  0.16963160D+01
  0.13939758D+00  0.37095461D+00  0.98569585D+00 -0.13287869D-02  0.29297318D-06
  0.27415071D-06  0.21234032D-06  0.92576216D-06  0.86628529D-06  0.67097144D-06
  0.95414184D-04  0.89284168D-04  0.69154039D-04  0.78387372D-02 -0.93606863D-07
 -0.78302322D-06 -0.76677025D-04 -0.13400987D-02  0.16935564D-07 -0.23390562D-07
 -0.18532812D-05 -0.65317093D-03 -0.12457950D-08  0.82126443D-07  0.79117205D-05
  0.84942265D-03  0.84937993D-03 -0.16988026D-02 -0.60897503D-09  0.60896360D-06
 -0.53356105D-04  0.38388064D-04  0.69246590D-04  0.10208773D-03 -0.12260561D-02
  0.66671301D-03  0.23950525D-04 -0.12273402D-02 -0.20161037D-02 -0.22705594D-04
  0.38386003D-04  0.69242873D-04  0.10208225D-03 -0.12260624D-02  0.66671707D-03
  0.23946433D-04 -0.11320342D-02  0.20702305D-02 -0.65471298D-04  0.38406315D-04
  0.69279513D-04  0.10213626D-03 -0.12259966D-02  0.66669353D-03  0.23976187D-04
  0.23592282D-02 -0.55475473D-04 -0.42798826D-04 -0.38809514D-06 -0.72375498D-06
 -0.12179728D-05 -0.19177090D-05 -0.25437501D-05 -0.16571226D-05  0.11491639D-04
  0.19366092D-04  0.41272579D-05 -0.98238603D-04  0.17477421D-03 -0.22496519D-03
  0.19585955D-03 -0.16384767D-03  0.14831524D-03  0.91297521D-04 -0.95968492D-09
  0.11245189D-06  0.10755360D-04 -0.41553826D-07 -0.55575278D-07 -0.64193734D-07
  0.29882449D-05  0.39965644D-05  0.46163403D-05  0.28526358D-03  0.38151969D-03
  0.44068467D-03 -0.14714194D-06 -0.69401905D-07 -0.12265321D-07  0.64270154D-05
  0.30314070D-05  0.53573715D-06  0.61199913D-03  0.28865940D-03  0.51014452D-04
  0.20314322D-07  0.42437584D-07  0.27042236D-07 -0.68443323D-06 -0.14298136D-05
 -0.91111112D-06 -0.65050242D-04 -0.13589305D-03 -0.86594274D-04 -0.81711893D-07
  0.19216279D-05  0.18198250D-03  0.61074877D-07 -0.13511377D-05 -0.12786169D-03
 -0.15799525D-07  0.18618665D-07  0.13638641D-05  0.53334680D-08  0.53471921D-06
  0.51384746D-04 -0.13781239D-02 -0.10272945D-02 -0.47619836D-03 -0.11134669D-03
 -0.13777421D-02 -0.10270100D-02 -0.47606645D-03 -0.11131585D-03  0.27558660D-02
  0.20543045D-02  0.95226482D-03  0.22266254D-03  0.64327759D-08  0.47951824D-08
  0.22227881D-08  0.51974161D-09 -0.40405114D-06 -0.30119174D-06 -0.13961625D-06
 -0.32645656D-07  0.86371200D-04  0.64383660D-04  0.29844794D-04  0.69784347D-05
  0.13589085D-03  0.13585385D-03 -0.27174470D-03 -0.78648904D-09  0.36639116D-07
 -0.85158866D-05 -0.40281386D-04 -0.40271783D-04  0.80553169D-04  0.52766380D-09
 -0.64536699D-08  0.25231625D-05 -0.16103663D-05 -0.30072080D-05 -0.51191036D-05
 -0.79354684D-05 -0.10685928D-04 -0.80992655D-05  0.64631485D-05  0.15055352D-04
  0.36723547D-05 -0.75041933D-04  0.10359361D-03 -0.10591021D-03  0.79925164D-04
  0.11278773D-03  0.84130021D-09 -0.79140682D-07 -0.75715022D-05 -0.30428757D-07
 -0.38965979D-07 -0.41693180D-07 -0.33175806D-07 -0.76355894D-08 -0.25124898D-05
 -0.32174047D-05 -0.34425886D-05 -0.27393125D-05 -0.63046744D-06 -0.24109057D-03
 -0.30873197D-03 -0.33033989D-03 -0.26285575D-03 -0.60497659D-04 -0.22827410D-08
  0.47435413D-09  0.23864928D-05 -0.49591378D-06  0.22840443D-03 -0.47462497D-04
  0.29728630D-08  0.96894047D-06  0.92805104D-04 -0.11018929D-08 -0.32871049D-06
 -0.31477976D-04  0.14125479D-07 -0.45749137D-06 -0.43528820D-04 -0.56704833D-04