 Single Point Energy
GAUSSIAN             31 MOL ORBITALS    210 PRIMITIVES        6 NUCLEI   B3LYP
  C    1    (CENTRE  1)  -0.54157038  0.00856422  0.06960642  CHARGE =  6.0
  H    2    (CENTRE  2)  -0.93033506 -1.01890998  1.79223890  CHARGE =  1.0
  H    3    (CENTRE  3)  -1.36019085 -0.90003401 -1.56704119  CHARGE =  1.0
  H    4    (CENTRE  4)  -1.08516064  1.97311816  0.20867455  CHARGE =  1.0
  Br   5    (CENTRE  5)   3.26959416 -0.05351283 -0.42025622  CHARGE = 35.0
  Cl   6    (CENTRE  6)  -6.34180510  0.10396409  0.81514452  CHARGE = 17.0
CENTRE ASSIGNMENTS    1  1  1  1  1  1  1  1  1  1  1  1  1  1  1  1  1  1  1  1
CENTRE ASSIGNMENTS    1  1  1  1  1  1  1  1  1  1  1  1  1  1  1  1  2  2  2  2
CENTRE ASSIGNMENTS    2  2  2  2  2  3  3  3  3  3  3  3  3  3  4  4  4  4  4  4
CENTRE ASSIGNMENTS    4  4  4  5  5  5  5  5  5  5  5  5  5  5  5  5  5  5  5  5
CENTRE ASSIGNMENTS    5  5  5  5  5  5  5  5  5  5  5  5  5  5  5  5  5  5  5  5
CENTRE ASSIGNMENTS    5  5  5  5  5  5  5  5  5  5  5  5  5  5  5  5  5  5  5  5
CENTRE ASSIGNMENTS    5  5  5  5  5  5  5  5  5  5  5  5  5  5  5  5  5  5  5  5
CENTRE ASSIGNMENTS    5  5  5  5  5  5  5  5  5  5  5  5  5  5  5  5  5  6  6  6
CENTRE ASSIGNMENTS    6  6  6  6  6  6  6  6  6  6  6  6  6  6  6  6  6  6  6  6
CENTRE ASSIGNMENTS    6  6  6  6  6  6  6  6  6  6  6  6  6  6  6  6  6  6  6  6
CENTRE ASSIGNMENTS    6  6  6  6  6  6  6  6  6  6
TYPE ASSIGNMENTS      1  1  1  1  1  1  1  1  1  2  2  2  3  3  3  4  4  4  1  2
TYPE ASSIGNMENTS      3  4  1  2  3  4  1  2  3  4  5  6  7  8  9 10  1  1  1  1
TYPE ASSIGNMENTS      1  1  2  3  4  1  1  1  1  1  1  2  3  4  1  1  1  1  1  1
TYPE ASSIGNMENTS      2  3  4  1  1  1  1  1  1  1  1  1  1  1  1  1  1  1  1  2
TYPE ASSIGNMENTS      3  4  2  2  2  3  3  3  4  4  4  2  2  2  3  3  3  4  4  4
TYPE ASSIGNMENTS      2  2  2  3  3  3  4  4  4  2  3  4  2  3  4  2  3  4  2  3
TYPE ASSIGNMENTS      4  5  5  5  5  6  6  6  6  7  7  7  7  8  8  8  8  9  9  9
TYPE ASSIGNMENTS      9 10 10 10 10  5  6  7  8  9 10  5  6  7  8  9 10  1  1  1
TYPE ASSIGNMENTS      1  1  1  1  1  1  1  1  1  1  1  2  3  4  2  2  2  2  2  3
TYPE ASSIGNMENTS      3  3  3  3  4  4  4  4  4  2  2  3  3  4  4  2  3  4  2  3
TYPE ASSIGNMENTS      4  2  3  4  5  6  7  8  9 10
EXPONENTS  0.4563240D+04 0.6820240D+03 0.1549730D+03 0.4445530D+02 0.1302900D+02
EXPONENTS  0.1827730D+01 0.2096420D+02 0.4803310D+01 0.1459330D+01 0.2096420D+02
EXPONENTS  0.4803310D+01 0.1459330D+01 0.2096420D+02 0.4803310D+01 0.1459330D+01
EXPONENTS  0.2096420D+02 0.4803310D+01 0.1459330D+01 0.4834560D+00 0.4834560D+00
EXPONENTS  0.4834560D+00 0.4834560D+00 0.1455850D+00 0.1455850D+00 0.1455850D+00
EXPONENTS  0.1455850D+00 0.4380000D-01 0.4380000D-01 0.4380000D-01 0.4380000D-01
EXPONENTS  0.6260000D+00 0.6260000D+00 0.6260000D+00 0.6260000D+00 0.6260000D+00
EXPONENTS  0.6260000D+00 0.3386500D+02 0.5094790D+01 0.1158790D+01 0.3258400D+00
EXPONENTS  0.1027410D+00 0.3600000D-01 0.7500000D+00 0.7500000D+00 0.7500000D+00
EXPONENTS  0.3386500D+02 0.5094790D+01 0.1158790D+01 0.3258400D+00 0.1027410D+00
EXPONENTS  0.3600000D-01 0.7500000D+00 0.7500000D+00 0.7500000D+00 0.3386500D+02
EXPONENTS  0.5094790D+01 0.1158790D+01 0.3258400D+00 0.1027410D+00 0.3600000D-01
EXPONENTS  0.7500000D+00 0.7500000D+00 0.7500000D+00 0.4397000D+06 0.6603000D+05
EXPONENTS  0.1514000D+05 0.4317000D+04 0.1414000D+04 0.5239000D+03 0.5239000D+03
EXPONENTS  0.2077000D+03 0.8654000D+02 0.3052000D+02 0.1298000D+02 0.4412000D+01
EXPONENTS  0.1862000D+01 0.3932000D+00 0.1400000D+00 0.3500000D-01 0.3500000D-01
EXPONENTS  0.3500000D-01 0.3500000D-01 0.2957000D+04 0.7003000D+03 0.2246000D+03
EXPONENTS  0.2957000D+04 0.7003000D+03 0.2246000D+03 0.2957000D+04 0.7003000D+03
EXPONENTS  0.2246000D+03 0.8259000D+02 0.3319000D+02 0.1420000D+02 0.8259000D+02
EXPONENTS  0.3319000D+02 0.1420000D+02 0.8259000D+02 0.3319000D+02 0.1420000D+02
EXPONENTS  0.1420000D+02 0.7438000D+01 0.3526000D+01 0.1420000D+02 0.7438000D+01
EXPONENTS  0.3526000D+01 0.1420000D+02 0.7438000D+01 0.3526000D+01 0.1595000D+01
EXPONENTS  0.1595000D+01 0.1595000D+01 0.8462000D+00 0.8462000D+00 0.8462000D+00
EXPONENTS  0.3186000D+00 0.3186000D+00 0.3186000D+00 0.1096000D+00 0.1096000D+00
EXPONENTS  0.1096000D+00 0.1348000D+03 0.3639000D+02 0.1216000D+02 0.4341000D+01
EXPONENTS  0.1348000D+03 0.3639000D+02 0.1216000D+02 0.4341000D+01 0.1348000D+03
EXPONENTS  0.3639000D+02 0.1216000D+02 0.4341000D+01 0.1348000D+03 0.3639000D+02
EXPONENTS  0.1216000D+02 0.4341000D+01 0.1348000D+03 0.3639000D+02 0.1216000D+02
EXPONENTS  0.4341000D+01 0.1348000D+03 0.3639000D+02 0.1216000D+02 0.4341000D+01
EXPONENTS  0.1535000D+01 0.1535000D+01 0.1535000D+01 0.1535000D+01 0.1535000D+01
EXPONENTS  0.1535000D+01 0.4510000D+00 0.4510000D+00 0.4510000D+00 0.4510000D+00
EXPONENTS  0.4510000D+00 0.4510000D+00 0.1058190D+06 0.1587200D+05 0.3619650D+04
EXPONENTS  0.1030800D+04 0.3399080D+03 0.1245380D+03 0.1245380D+03 0.4951350D+02
EXPONENTS  0.2080560D+02 0.6583460D+01 0.2564680D+01 0.5597630D+00 0.1832730D+00
EXPONENTS  0.4830000D-01 0.4830000D-01 0.4830000D-01 0.4830000D-01 0.5897760D+03
EXPONENTS  0.1398490D+03 0.4514130D+02 0.1687330D+02 0.2771520D+01 0.5897760D+03
EXPONENTS  0.1398490D+03 0.4514130D+02 0.1687330D+02 0.2771520D+01 0.5897760D+03
EXPONENTS  0.1398490D+03 0.4514130D+02 0.1687330D+02 0.2771520D+01 0.6741100D+01
EXPONENTS  0.2771520D+01 0.6741100D+01 0.2771520D+01 0.6741100D+01 0.2771520D+01
EXPONENTS  0.1023870D+01 0.1023870D+01 0.1023870D+01 0.3813680D+00 0.3813680D+00
EXPONENTS  0.3813680D+00 0.1094370D+00 0.1094370D+00 0.1094370D+00 0.7500000D+00
EXPONENTS  0.7500000D+00 0.7500000D+00 0.7500000D+00 0.7500000D+00 0.7500000D+00
MO    1     MO 0.0        OCC NO =    2.0000000  ORB. ENERGY = -482.691878
  0.21518126D-06  0.40057988D-06  0.65895014D-06  0.88485944D-06  0.83312852D-06
  0.68463717D-07 -0.48318448D-06 -0.12839116D-05  0.17308026D-08  0.45759650D-05
  0.42819758D-05  0.33165558D-05 -0.74381753D-07 -0.69602995D-07 -0.53910210D-07
 -0.58812138D-06 -0.55033671D-06 -0.42625705D-06  0.66610455D-07 -0.93172834D-06
  0.15128897D-07  0.11969657D-06  0.55795821D-05  0.11092500D-05 -0.17928506D-07
 -0.14258541D-06  0.90184241D-05  0.29050606D-05 -0.47466715D-07 -0.37340035D-06
 -0.25491063D-05  0.13059410D-05  0.12431653D-05  0.12554470D-06  0.99128740D-06
 -0.16085314D-07 -0.21662664D-06 -0.39076355D-06 -0.57608847D-06 -0.10879831D-05
 -0.16163672D-05 -0.50311290D-06 -0.33371818D-08 -0.72110826D-06  0.11669650D-05
 -0.21662334D-06 -0.39075760D-06 -0.57607970D-06 -0.10880613D-05 -0.16163684D-05
 -0.50312301D-06 -0.30321103D-06 -0.63826095D-06 -0.11759185D-05 -0.21660141D-06
 -0.39071803D-06 -0.57602137D-06 -0.10881703D-05 -0.16165829D-05 -0.50345609D-06
 -0.11090297D-06  0.13662198D-05  0.62548142D-07  0.38584363D+01  0.71955616D+01
  0.12109068D+02  0.19065835D+02  0.25289927D+02  0.16475089D+02  0.96359546D+01
  0.16238831D+02  0.34607831D+01  0.81730659D-01 -0.11319779D-01  0.24941290D-02
 -0.64843593D-03  0.74716271D-04 -0.26057678D-04 -0.51623796D-05  0.55243705D-06
 -0.89399633D-08 -0.71005914D-07 -0.24031450D-02 -0.32140350D-02 -0.37124584D-02
  0.39112296D-04  0.52309906D-04  0.60421977D-04  0.30887494D-03  0.41309820D-03
  0.47716030D-03 -0.26905642D-03 -0.12690486D-03 -0.22427754D-04  0.43758310D-05
  0.20639323D-05  0.36475643D-06  0.34581738D-04  0.16311042D-04  0.28826322D-05
  0.69665082D-05  0.14553367D-04  0.92737506D-05 -0.11310830D-06 -0.23628862D-06
 -0.15056871D-06 -0.89541468D-06 -0.18705638D-05 -0.11919676D-05 -0.16926201D-04
  0.27455278D-06  0.21755675D-05  0.12217276D-04 -0.19816535D-06 -0.15703218D-05
 -0.49289872D-05  0.79997316D-07  0.63353676D-06  0.37163836D-05 -0.60435405D-07
 -0.47767605D-06 -0.28665285D-04 -0.21367956D-04 -0.99050324D-05 -0.23160361D-05
  0.14686232D-04  0.10947554D-04  0.50746960D-05  0.11865866D-05  0.13979053D-04
  0.10420402D-04  0.48303365D-05  0.11294495D-05  0.14027403D-05  0.10456443D-05
  0.48470432D-06  0.11333559D-06  0.11146013D-04  0.83085697D-05  0.38514050D-05
  0.90055164D-06 -0.18028130D-06 -0.13438704D-06 -0.62294587D-07 -0.14565981D-07
  0.54312971D-05 -0.27825103D-05 -0.26487868D-05 -0.26686188D-06 -0.21119571D-05
  0.34296452D-07 -0.16241744D-05  0.83207601D-06  0.79209842D-06  0.79855229D-07
  0.63156257D-06 -0.10262828D-07  0.18397994D-06  0.34356527D-06  0.58484355D-06
  0.90660550D-06  0.12208379D-05  0.92531887D-06 -0.66979516D-06 -0.15602306D-05
 -0.38057696D-06  0.24929156D-05 -0.23782479D-05  0.18095654D-05 -0.21014110D-05
  0.40043089D-05  0.68156203D-06 -0.11288001D-07 -0.87606669D-07 -0.11727345D-04
 -0.15017619D-04 -0.16068691D-04 -0.12786066D-04 -0.29427816D-05  0.19289447D-06
  0.24701377D-06  0.26430209D-06  0.21030861D-06  0.48403653D-07  0.15074007D-05
  0.19303235D-05  0.20654255D-05  0.16434859D-05  0.37825708D-06  0.10344658D-04
 -0.21496225D-05 -0.17016595D-06  0.35360525D-07 -0.13296741D-05  0.27630659D-06
  0.26857042D-05 -0.44158261D-07 -0.34521292D-06 -0.13670174D-05  0.22452570D-07
  0.17571220D-06  0.63921753D-06 -0.10447380D-07 -0.82161908D-07  0.60040261D-06
 -0.30755341D-06 -0.29284919D-06 -0.30026004D-07 -0.23349156D-06  0.38643903D-08
MO    2     MO 0.0        OCC NO =    2.0000000  ORB. ENERGY = -101.256337
  0.83317017D-06  0.15510236D-05  0.25514192D-05  0.34261278D-05  0.32258285D-05
  0.26508780D-06 -0.21792681D-05 -0.57907233D-05  0.78062995D-08 -0.16074380D-04
 -0.15041659D-04 -0.11650346D-04  0.26497366D-06  0.24795007D-06  0.19204691D-06
  0.20662696D-05  0.19335192D-05  0.14975854D-05  0.19346905D-05  0.10093043D-04
 -0.16984867D-06 -0.12974707D-05  0.17106645D-04 -0.15373743D-04  0.25007132D-06
  0.19759964D-05  0.27679817D-05  0.44051107D-05 -0.72471123D-07 -0.56623299D-06
 -0.71344978D-05  0.36536960D-05  0.34808018D-05  0.35419543D-06  0.27749498D-05
 -0.45872574D-07  0.32875912D-05  0.59303456D-05  0.87428925D-05 -0.25508302D-04
  0.17611377D-05 -0.71649462D-05  0.11135835D-04 -0.82278967D-05  0.11587651D-04
  0.32875806D-05  0.59303264D-05  0.87428642D-05 -0.25508486D-04  0.17612994D-05
 -0.71651962D-05  0.77899432D-05 -0.73025880D-05 -0.14558650D-04  0.32874892D-05
  0.59301615D-05  0.87426211D-05 -0.25508190D-04  0.17672619D-05 -0.71705966D-05
  0.99277220D-05  0.15049066D-04 -0.73777020D-06  0.93024363D-07  0.17348026D-06
  0.29194168D-06  0.45966476D-06  0.60972352D-06  0.39720357D-06 -0.32388078D-05
 -0.54581466D-05 -0.11632279D-05  0.19703700D-04 -0.27800276D-04  0.26413515D-04
 -0.18269166D-04  0.10330093D-04 -0.68768502D-05  0.38417675D-05 -0.10019048D-05
  0.16676277D-07  0.12878203D-06  0.17541728D-05  0.23460810D-05  0.27099046D-05
 -0.28776714D-07 -0.38486803D-07 -0.44455226D-07 -0.22538916D-06 -0.30144193D-06
 -0.34818869D-06 -0.47671273D-05 -0.22484936D-05 -0.39737374D-06  0.78293936D-07
  0.36928615D-07  0.65263527D-08  0.61247653D-06  0.28888457D-06  0.51054246D-07
  0.61578063D-06  0.12863950D-05  0.81972142D-06 -0.10107045D-07 -0.21114097D-07
 -0.13454404D-07 -0.79116542D-07 -0.16527822D-06 -0.10531920D-06 -0.26853378D-05
  0.43984232D-07  0.34503673D-06  0.25999097D-05 -0.42494986D-07 -0.33408158D-06
 -0.21660590D-05  0.35291768D-07  0.27836999D-06 -0.19026529D-05  0.31081277D-07
  0.24458104D-06  0.14187406D-03  0.10575714D-03  0.49023309D-04  0.11462835D-04
 -0.72684973D-04 -0.54181540D-04 -0.25115641D-04 -0.58726443D-05 -0.69189084D-04
 -0.51575600D-04 -0.23907668D-04 -0.55901910D-05 -0.69989770D-05 -0.52172456D-05
 -0.24184338D-05 -0.56548831D-06 -0.55171671D-04 -0.41126604D-04 -0.19064076D-04
 -0.44576421D-05  0.89868592D-06  0.66990720D-06  0.31053287D-06  0.72610094D-07
 -0.11437169D-04  0.58594915D-05  0.55776778D-05  0.56419329D-06  0.44476579D-05
 -0.72445490D-07  0.34602649D-05 -0.17727527D-05 -0.16875122D-05 -0.17065183D-06
 -0.13456129D-05  0.21916338D-07  0.12702097D+01  0.23719975D+01  0.40377987D+01
  0.62592647D+01  0.84287462D+01  0.63884630D+01  0.23318260D+01  0.54317894D+01
  0.13249413D+01  0.43849986D-01 -0.56435507D-02  0.63282632D-03 -0.16503145D-03
  0.34753670D-04  0.71242783D-05 -0.11680992D-06 -0.91572547D-06  0.16449327D-03
  0.21064420D-03  0.22538703D-03  0.17934339D-03  0.41276843D-04 -0.26994805D-05
 -0.34568582D-05 -0.36988013D-05 -0.29431843D-05 -0.67738962D-06 -0.21140453D-04
 -0.27071709D-04 -0.28966438D-04 -0.23048971D-04 -0.53048442D-05 -0.89481973D-04
  0.18594376D-04  0.14684738D-05 -0.30514921D-06  0.11499400D-04 -0.23895782D-05
 -0.29978458D-04  0.49249196D-06  0.38529596D-05  0.16622217D-04 -0.27327616D-06
 -0.21364813D-05 -0.10618036D-04  0.17438412D-06  0.13647921D-05 -0.33218974D-05
  0.17018174D-05  0.16200800D-05  0.16548948D-06  0.12917720D-05 -0.21270879D-07
MO    3     MO 0.0        OCC NO =    2.0000000  ORB. ENERGY =  -62.344875
  0.23213590D-05  0.43214252D-05  0.71087038D-05  0.95457961D-05  0.89877269D-05
  0.73858135D-06 -0.58096762D-05 -0.15437397D-04  0.20810690D-07  0.64539986D-04
  0.60393525D-04  0.46777120D-04 -0.10491883D-05 -0.98178172D-06 -0.76042789D-06
 -0.82949570D-05 -0.77620360D-05 -0.60119969D-05  0.11520937D-05 -0.14221577D-04
  0.23101658D-06  0.18270996D-05  0.77918896D-04  0.15341327D-04 -0.24792411D-06
 -0.19720064D-05  0.12819973D-03  0.41112259D-04 -0.67174833D-06 -0.52843410D-05
 -0.37114620D-04  0.19014323D-04  0.18100297D-04  0.18279933D-05  0.14432971D-04
 -0.23424372D-06 -0.30529130D-05 -0.55070195D-05 -0.81187984D-05 -0.15249405D-04
 -0.23012096D-04 -0.72427698D-05 -0.12256924D-07 -0.10201932D-04  0.16504401D-04
 -0.30528673D-05 -0.55069370D-05 -0.81186767D-05 -0.15250486D-04 -0.23012114D-04
 -0.72429076D-05 -0.42545174D-05 -0.90298774D-05 -0.16640021D-04 -0.30525673D-05
 -0.55063959D-05 -0.81178790D-05 -0.15252039D-04 -0.23015115D-04 -0.72476607D-05
 -0.15341301D-05  0.19327057D-04  0.88037407D-06 -0.12742129D+01 -0.23762676D+01
 -0.39989077D+01 -0.62963157D+01 -0.83517644D+01 -0.54407456D+01 -0.53840037D+01
 -0.90733020D+01 -0.19336817D+01  0.58199974D+01  0.24290401D+01  0.10325571D+00
 -0.11038809D-01  0.10790967D-02 -0.37136123D-03 -0.72904031D-04  0.78766260D-05
 -0.12746862D-06 -0.10123986D-05 -0.57696068D-01 -0.77164375D-01 -0.89130807D-01
  0.93879670D-03  0.12555736D-02  0.14502844D-02  0.74156013D-02  0.99178378D-02
  0.11455868D-01 -0.80116710D-01 -0.37788357D-01 -0.66782939D-02  0.13035793D-02
  0.61485448D-03  0.10866254D-03  0.10297309D-01  0.48568944D-02  0.85835350D-03
 -0.15574116D-03 -0.32535069D-03 -0.20732118D-03  0.25376260D-05  0.53012213D-05
  0.33780640D-05  0.20016103D-04  0.41814591D-04  0.26645250D-04 -0.62075299D-04
  0.99788582D-06  0.79805344D-05  0.11412095D-03 -0.18480269D-05 -0.14669018D-04
 -0.63351327D-04  0.10279277D-05  0.81428195D-05  0.51581880D-04 -0.83880394D-06
 -0.66299584D-05  0.64530244D-02  0.48102763D-02  0.22297848D-02  0.52137761D-03
 -0.33058381D-02 -0.24642700D-02 -0.11423027D-02 -0.26709800D-03 -0.31471863D-02
 -0.23460063D-02 -0.10874820D-02 -0.25427960D-03 -0.31809440D-03 -0.23711702D-03
 -0.10991467D-03 -0.25700708D-04 -0.25092623D-02 -0.18704787D-02 -0.86705311D-03
 -0.20273799D-03  0.40848786D-04  0.30449900D-04  0.14114932D-04  0.33004125D-05
  0.19360104D-04 -0.99191971D-05 -0.94409072D-05 -0.94364434D-06 -0.75285163D-05
  0.12171914D-06 -0.19178942D-04  0.98255460D-05  0.93533962D-05  0.94260700D-06
  0.74577683D-05 -0.12116727D-06  0.55697286D-06  0.10400946D-05  0.17705299D-05
  0.27446180D-05  0.36959116D-05  0.28012701D-05 -0.56778443D-05 -0.13226053D-04
 -0.32261456D-05  0.30106628D-04 -0.31097991D-04  0.25240439D-04 -0.29760088D-04
  0.56735649D-04  0.96850247D-05 -0.16039706D-06 -0.12448943D-05 -0.13463541D-03
 -0.17240930D-03 -0.18447610D-03 -0.14679003D-03 -0.33784512D-04  0.22141303D-05
  0.28353361D-05  0.30337793D-05  0.24140176D-05  0.55559909D-06  0.17305638D-04
  0.22160981D-04  0.23712012D-04  0.18867957D-04  0.43425612D-05  0.10893950D-03
 -0.22637655D-04 -0.17917163D-05  0.37231908D-06 -0.14002758D-04  0.29097765D-05
  0.34292901D-04 -0.56374590D-06 -0.44079091D-05 -0.18655201D-04  0.30635938D-06
  0.23978810D-05  0.89177202D-05 -0.14573012D-06 -0.11462402D-05  0.83215773D-05
 -0.42626880D-05 -0.40588894D-05 -0.41614109D-06 -0.32361920D-05  0.53557479D-07
MO    4     MO 0.0        OCC NO =    2.0000000  ORB. ENERGY =  -56.164760
 -0.74301196D-05 -0.13831857D-04 -0.22753275D-04 -0.30553830D-04 -0.28767583D-04
 -0.23640238D-05  0.22050411D-04  0.58592072D-04 -0.78986206D-07  0.12245734D-03
  0.11458989D-03  0.88754303D-04 -0.19936658D-05 -0.18655800D-05 -0.14449638D-05
 -0.15739784D-04 -0.14728560D-04 -0.11407839D-04  0.32487517D-04 -0.10584889D-03
  0.17233214D-05  0.13605179D-04 -0.94420683D-04 -0.31679929D-04  0.51773781D-06
  0.40720065D-05  0.36548005D-04  0.30158703D-04 -0.49176363D-06 -0.38763797D-05
 -0.96200952D-04  0.49282684D-04  0.46918268D-04  0.47408470D-05  0.37409094D-04
 -0.60896863D-06 -0.76756496D-05 -0.13845777D-04 -0.20412325D-04  0.41305087D-04
  0.11783536D-04  0.12677293D-04  0.62729448D-04 -0.45752811D-06 -0.89782111D-05
 -0.76757847D-05 -0.13846021D-04 -0.20412684D-04  0.41304949D-04  0.11783726D-04
  0.12677311D-04  0.62964914D-04 -0.52257252D-06 -0.71400858D-05 -0.76758424D-05
 -0.13846125D-04 -0.20412837D-04  0.41304580D-04  0.11780970D-04  0.12676915D-04
  0.62815118D-04 -0.20916374D-05 -0.81117225D-05 -0.91912506D-03 -0.17140677D-02
 -0.28845230D-02 -0.45417070D-02 -0.60243591D-02 -0.39245606D-02 -0.39309732D-02
 -0.66246066D-02 -0.14118213D-02  0.44138764D-02  0.16407526D-02  0.15248599D-03
 -0.69293934D-04 -0.56796349D-05  0.27224042D-04 -0.83624584D-04  0.36517508D-05
 -0.59311015D-07 -0.46939009D-06  0.86982780D+02  0.11633326D+03  0.13437389D+03
 -0.14164911D+01 -0.18944558D+01 -0.21882426D+01 -0.11180039D+02 -0.14952505D+02
 -0.17271297D+02  0.11184609D+03  0.52754037D+02  0.93231618D+01 -0.18213834D+01
 -0.85908526D+00 -0.15182517D+00 -0.14375761D+02 -0.67805629D+01 -0.11983213D+01
  0.99534046D-01  0.20793135D+00  0.13249879D+00 -0.16208851D-02 -0.33861061D-02
 -0.21577071D-02 -0.12793273D-01 -0.26725756D-01 -0.17030286D-01 -0.37669090D-01
  0.61342911D-03  0.48416698D-02  0.10759015D-01 -0.17520600D-03 -0.13828743D-02
 -0.11730609D-02  0.19102293D-04  0.15077573D-03  0.11012588D-03 -0.17930883D-05
 -0.14154702D-04 -0.52338656D-02 -0.39014790D-02 -0.18085153D-02 -0.42287463D-03
  0.26813013D-02  0.19987217D-02  0.92649964D-03  0.21663802D-03  0.25525642D-02
  0.19027573D-02  0.88201570D-03  0.20623660D-03  0.25771645D-03  0.19210951D-03
  0.89051611D-04  0.20822420D-04  0.20350364D-02  0.15169766D-02  0.70318858D-03
  0.16442250D-03 -0.33071248D-04 -0.24652291D-04 -0.11427473D-04 -0.26720196D-05
 -0.17372155D-03  0.88996150D-04  0.84725402D-04  0.85631422D-05  0.67556250D-04
 -0.11012645D-05  0.65806181D-04 -0.33712061D-04 -0.32094120D-04 -0.32429519D-05
 -0.25589724D-04  0.41688220D-06  0.24054941D-07  0.44920345D-07  0.76466908D-07
  0.11853652D-06  0.15962166D-06  0.12098325D-06 -0.27072015D-06 -0.63061945D-06
 -0.15382293D-06  0.13624626D-05 -0.11790541D-05 -0.33363056D-06  0.28385737D-05
  0.19615799D-04  0.35815393D-05 -0.59752839D-07 -0.46036247D-06  0.38536999D-04
  0.49349104D-04  0.52803013D-04  0.42016044D-04  0.96702175D-05 -0.62495439D-06
 -0.80029426D-06 -0.85630628D-06 -0.68137404D-06 -0.15682189D-06 -0.49533942D-05
 -0.63431396D-05 -0.67870914D-05 -0.54005769D-05 -0.12429717D-05 -0.29982481D-04
  0.62303669D-05  0.48606686D-06 -0.10100481D-06  0.38538254D-05 -0.80082587D-06
 -0.10903307D-04  0.17700039D-06  0.14014724D-05  0.68359329D-05 -0.11113857D-06
 -0.87866894D-06 -0.61802436D-06  0.98068135D-08  0.79439845D-07 -0.36746059D-05
  0.18823528D-05  0.17922531D-05  0.17961356D-06  0.14289828D-05 -0.23119377D-07
MO    5     MO 0.0        OCC NO =    2.0000000  ORB. ENERGY =  -56.161526
  0.11544398D-09  0.21490968D-09  0.35352441D-09  0.47472395D-09  0.44697049D-09
  0.36730541D-10 -0.38997309D-09 -0.10362315D-08  0.13969125D-11  0.10288825D-05
  0.96278048D-06  0.74571070D-06 -0.50299128D-04 -0.47067591D-04 -0.36455669D-04
  0.14389832D-04  0.13465338D-04  0.10429424D-04  0.12230176D-08 -0.99129664D-06
  0.48449824D-04 -0.13860523D-04 -0.30389032D-08 -0.21590650D-06  0.10552088D-04
 -0.30184726D-05 -0.10444547D-07  0.15757630D-06 -0.74459084D-05  0.21291824D-05
 -0.11210391D-05  0.27104149D-04 -0.25983110D-04  0.39118177D-04 -0.16679030D-04
  0.17702854D-04  0.12966217D-05  0.23389205D-05  0.34481854D-05  0.22116780D-04
  0.72865723D-05 -0.27553949D-04  0.36389073D-04  0.67556479D-05 -0.29660154D-04
  0.36326211D-06  0.65527301D-06  0.96604514D-06  0.61946088D-05  0.20449374D-05
 -0.77171419D-05  0.12341344D-04 -0.57553660D-05  0.93766807D-05 -0.16592281D-05
 -0.29930108D-05 -0.44124868D-05 -0.28314149D-04 -0.93161721D-05  0.35282136D-04
 -0.49420294D-04  0.32602885D-04  0.10670652D-04 -0.10996629D-07 -0.20507510D-07
 -0.34511113D-07 -0.54338054D-07 -0.72076853D-07 -0.46954369D-07 -0.48122490D-07
 -0.81097620D-07 -0.17283343D-07  0.60918999D-07  0.75108268D-08  0.13245705D-07
 -0.87247283D-08  0.52673361D-08 -0.45810715D-08 -0.91638348D-08  0.15851673D-06
 -0.76871778D-05  0.21989226D-05 -0.17272317D+01 -0.23100492D+01 -0.26682851D+01
  0.84315375D+02  0.11276580D+03  0.13025320D+03 -0.24120791D+02 -0.32259837D+02
 -0.37262601D+02 -0.22208857D+01 -0.10475171D+01 -0.18512651D+00  0.10841325D+03
  0.51134884D+02  0.90370107D+01 -0.31014669D+02 -0.14628576D+02 -0.25852918D+01
 -0.19698910D-02 -0.41151958D-02 -0.26223004D-02  0.96160849D-01  0.20088458D+00
  0.12800842D+00 -0.27509523D-01 -0.57468701D-01 -0.36620420D-01  0.73363342D-03
 -0.35812662D-01  0.10245221D-01 -0.20348566D-03  0.99333384D-02 -0.28417104D-02
  0.20217464D-04 -0.98700090D-03  0.28235911D-03 -0.20448631D-05  0.99884179D-04
 -0.28574687D-04  0.26957081D-03  0.20094609D-03  0.93147776D-04  0.21780203D-04
  0.20034736D-03  0.14934488D-03  0.69228235D-04  0.16187236D-04 -0.46991816D-03
 -0.35029097D-03 -0.16237601D-03 -0.37967438D-04 -0.13151686D-01 -0.98036574D-02
 -0.45444471D-02 -0.10626016D-02  0.37293577D-02  0.27799741D-02  0.12886461D-02
  0.30131663D-03  0.16175672D-02  0.12057827D-02  0.55893587D-03  0.13069272D-03
 -0.16660515D-05  0.83458967D-06  0.83146187D-06  0.80190375D-04 -0.23155325D-04
 -0.81911530D-05 -0.76576414D-07 -0.62236250D-06  0.69893891D-06  0.40351015D-05
 -0.10306919D-05 -0.95225035D-06 -0.40054405D-11 -0.74797844D-11 -0.12732671D-10
 -0.19737774D-10 -0.26578951D-10 -0.20145184D-10  0.46009800D-10  0.10717590D-09
  0.26142724D-10 -0.22430409D-09  0.17542822D-09  0.19684947D-09 -0.13022872D-08
  0.63637140D-08  0.21504370D-07 -0.98899070D-06  0.28242955D-06  0.77993697D-06
  0.99875942D-06  0.10686619D-05  0.85034815D-06  0.19571218D-06 -0.39168847D-04
 -0.50158226D-04 -0.53668764D-04 -0.42704934D-04 -0.98287692D-05  0.11203027D-04
  0.14346196D-04  0.15350276D-04  0.12214414D-04  0.28112129D-05 -0.62583050D-06
  0.13004773D-06  0.31418000D-04 -0.65286680D-05 -0.89861452D-05  0.18673232D-05
 -0.19743011D-06  0.99308934D-05 -0.28404118D-05  0.10120208D-06 -0.51117396D-05
  0.14620264D-05 -0.40590625D-07  0.20830554D-05 -0.59573567D-06 -0.41491237D-07
 -0.59055105D-06  0.63204229D-06  0.24354039D-05 -0.58007947D-06 -0.74829855D-06
MO    6     MO 0.0        OCC NO =    2.0000000  ORB. ENERGY =  -56.161526
  0.24159794D-10  0.44975700D-10  0.73984603D-10  0.99348905D-10  0.93540739D-10
  0.76868652D-11 -0.78492838D-10 -0.20857017D-09  0.28116716D-12 -0.66447302D-05
 -0.62178303D-05 -0.48159499D-05 -0.14401457D-04 -0.13476216D-04 -0.10437850D-04
 -0.49865655D-04 -0.46661967D-04 -0.36141497D-04  0.32709332D-10  0.64003021D-05
  0.13871952D-04  0.48031469D-04 -0.31067257D-09  0.13938118D-05  0.30211831D-05
  0.10459902D-04 -0.20115210D-08 -0.98207105D-06 -0.21318953D-05 -0.73809207D-05
  0.43799202D-05  0.11023406D-04 -0.15403326D-04  0.33496079D-05  0.30765457D-04
 -0.56835507D-04 -0.11678790D-05 -0.21066870D-05 -0.31058120D-05 -0.19922590D-04
 -0.65577067D-05  0.24821304D-04 -0.33898635D-04 -0.17782757D-04  0.19486240D-04
  0.17066829D-05  0.30786125D-05  0.45386863D-05  0.29115075D-04  0.95861299D-05
 -0.36273900D-04  0.55749764D-04  0.16439999D-04  0.21045255D-04 -0.53876845D-06
 -0.97186142D-06 -0.14327799D-05 -0.91928040D-05 -0.30255391D-05  0.11455241D-04
 -0.17413102D-04  0.10963665D-04 -0.72193649D-05 -0.59913658D-08 -0.11173242D-07
 -0.18802917D-07 -0.29605359D-07 -0.39270106D-07 -0.25582458D-07 -0.25724270D-07
 -0.43351395D-07 -0.92389518D-08  0.29768122D-07  0.95975862D-08  0.19752953D-08
 -0.16703154D-08  0.14468355D-08 -0.14742547D-08 -0.25424128D-08 -0.10150501D-05
 -0.22009868D-05 -0.76207180D-05  0.11136913D+02  0.14894827D+02  0.17204674D+02
  0.24141028D+02  0.32286902D+02  0.37293863D+02  0.83588625D+02  0.11179382D+03
  0.12913049D+03  0.14319915D+02  0.67542221D+01  0.11936661D+01  0.31040689D+02
  0.14640849D+02  0.25874608D+01  0.10747879D+03  0.50694131D+02  0.89591169D+01
  0.12701540D-01  0.26534121D-01  0.16908171D-01  0.27532602D-01  0.57516914D-01
  0.36651142D-01  0.95331997D-01  0.19915307D+00  0.12690506D+00 -0.47303654D-02
 -0.10253818D-01 -0.35503973D-01  0.13120584D-02  0.28440961D-02  0.98477148D-02
 -0.13036931D-03 -0.28259645D-03 -0.97849201D-03  0.13193654D-04  0.28598684D-04
  0.99022697D-04 -0.17362308D-02 -0.12942381D-02 -0.59993900D-03 -0.14028025D-03
  0.55804496D-04  0.41598331D-04  0.19282744D-04  0.45087718D-05  0.16804263D-02
  0.12526397D-02  0.58065626D-03  0.13577148D-03 -0.37321974D-02 -0.27820909D-02
 -0.12896274D-02 -0.30154607D-03 -0.12807265D-01 -0.95469163D-02 -0.44254358D-02
 -0.10347739D-02  0.72276391D-03  0.53876971D-03  0.24974459D-03  0.58396326D-04
  0.10529505D-04  0.49011704D-06 -0.11019622D-04  0.22181104D-04  0.77548428D-04
 -0.84659777D-05  0.54821353D-06 -0.24361599D-06 -0.30459754D-06  0.13020269D-05
  0.40771531D-05  0.88544610D-06  0.53754599D-12  0.10038167D-11  0.17087749D-11
  0.26488875D-11  0.35670005D-11  0.27035635D-11 -0.55332675D-11 -0.12889274D-10
 -0.31439972D-11  0.37207546D-10 -0.55507949D-10  0.14515497D-09 -0.48029469D-09
  0.17506695D-08 -0.13015678D-06 -0.28321293D-06 -0.97950900D-06 -0.51783923D-05
 -0.66312642D-05 -0.70953816D-05 -0.56458874D-05 -0.12994312D-05 -0.11215406D-04
 -0.14362048D-04 -0.15367238D-04 -0.12227911D-04 -0.28143192D-05 -0.38814761D-04
 -0.49704797D-04 -0.53183600D-04 -0.42318882D-04 -0.97399173D-05  0.41536222D-05
 -0.86312371D-06  0.89960615D-05 -0.18693838D-05  0.31134091D-04 -0.64696718D-05
  0.13130082D-05  0.28435703D-05  0.98409625D-05 -0.67594613D-06 -0.14636877D-05
 -0.50652190D-05  0.27556234D-06  0.59647867D-06  0.20636988D-05  0.33782567D-06
 -0.23376607D-06 -0.10405960D-06  0.84560970D-06  0.25178179D-05  0.95604236D-06
MO    7     MO 0.0        OCC NO =    2.0000000  ORB. ENERGY =  -10.083729
  0.43813725D+00  0.81563316D+00  0.13417089D+01  0.18016898D+01  0.16963589D+01
  0.13940110D+00  0.37089078D+00  0.98552625D+00 -0.13285582D-02  0.29680643D-02
  0.27773769D-02  0.21511858D-02 -0.48565279D-04 -0.45445136D-04 -0.35199014D-04
 -0.38150681D-03 -0.35699637D-03 -0.27650749D-03  0.79288610D-02 -0.15575801D-02
  0.25371797D-04  0.20019617D-03 -0.14988117D-02 -0.68830971D-04  0.11255106D-05
  0.88464779D-05 -0.70426315D-03  0.11256684D-03 -0.18347569D-05 -0.14467579D-04
 -0.12741381D-02  0.65277212D-03  0.62136602D-03  0.62780570D-04  0.49547942D-03
 -0.80816086D-05  0.52753785D-04  0.95160302D-04  0.14029137D-03 -0.12655475D-02
  0.73039111D-03  0.84811088D-04 -0.29677843D-03 -0.12006774D-02  0.19886401D-02
  0.52754214D-04  0.95161075D-04  0.14029251D-03 -0.12655526D-02  0.73039339D-03
  0.84814495D-04 -0.79803049D-03 -0.10620640D-02 -0.19286201D-02  0.52752892D-04
  0.95158692D-04  0.14028899D-03 -0.12655685D-02  0.73038783D-03  0.84785093D-04
 -0.47731764D-03  0.22883393D-02  0.14205114D-03  0.15337798D-05  0.28603316D-05
  0.48135160D-05  0.75789236D-05  0.10053083D-04  0.65490673D-05 -0.14681714D-05
 -0.24742113D-05 -0.52729834D-06  0.53574898D-04 -0.11345792D-03  0.13920816D-03
 -0.11231264D-03 -0.55917441D-04  0.22600246D-03 -0.96616650D-04  0.15132797D-04
 -0.24445457D-06 -0.19451508D-05 -0.15436650D-05 -0.20645419D-05 -0.23847051D-05
  0.14398726D-07  0.19257269D-07  0.22243632D-07  0.19944607D-06  0.26674489D-06
  0.30811093D-06  0.72444608D-03  0.34169684D-03  0.60387699D-04 -0.11836676D-04
 -0.55829617D-05 -0.98667055D-06 -0.93111754D-04 -0.43917682D-04 -0.77615226D-05
 -0.13078786D-03 -0.27322205D-03 -0.17410357D-03  0.21353486D-05  0.44608447D-05
  0.28425561D-05  0.16810082D-04  0.35117061D-04  0.22377425D-04  0.53787496D-03
 -0.87819140D-05 -0.69132717D-04 -0.20109589D-03  0.32923950D-05  0.25845782D-04
 -0.13181733D-03  0.21408530D-05  0.16943648D-04 -0.71458367D-04  0.11660371D-05
  0.91843777D-05  0.13923282D-02  0.10378829D-02  0.48110655D-03  0.11249435D-03
 -0.71328010D-03 -0.53170019D-03 -0.24646755D-03 -0.57630073D-04 -0.67904815D-03
 -0.50618268D-03 -0.23463900D-03 -0.54864273D-04 -0.68804671D-04 -0.51289047D-04
 -0.23774837D-04 -0.55591320D-05 -0.54141163D-03 -0.40358433D-03 -0.18707994D-03
 -0.43743814D-04  0.88525952D-05  0.65989876D-05  0.30589349D-05  0.71525297D-06
 -0.21858391D-03  0.11197919D-03  0.10660472D-03  0.10789508D-04  0.84997987D-04
 -0.13876675D-05  0.15069419D-03 -0.77199785D-04 -0.73494404D-04 -0.74311701D-05
 -0.58599206D-04  0.95545028D-06 -0.90834512D-07 -0.16962493D-06 -0.28874875D-06
 -0.44760896D-06 -0.60275168D-06 -0.45684812D-06 -0.44262031D-05 -0.10310462D-04
 -0.25149643D-05  0.30493043D-04 -0.39442031D-04  0.53529508D-04 -0.42322134D-04
  0.16149973D-03  0.26442372D-04 -0.43850409D-06 -0.33986930D-05 -0.52558682D-03
 -0.67304771D-03 -0.72015383D-03 -0.57303577D-03 -0.13188725D-03  0.86795587D-05
  0.11114733D-04  0.11892645D-04  0.94631322D-05  0.21779906D-05  0.67557825D-04
  0.86512137D-04  0.92567059D-04  0.73656813D-04  0.16952510D-04  0.29426849D-03
 -0.61149064D-04 -0.48606746D-05  0.10100494D-05 -0.37824710D-04  0.78599839D-05
  0.17722169D-03 -0.29234221D-05 -0.22779667D-04 -0.92687611D-04  0.15276832D-05
  0.11913825D-04  0.18201210D-04 -0.30359592D-06 -0.23395644D-05 -0.39898674D-04