 Single Point Energy
GAUSSIAN             31 MOL ORBITALS    210 PRIMITIVES        6 NUCLEI   B3LYP
  C    1    (CENTRE  1)  -2.12259366  0.21201801  0.69089616  CHARGE =  6.0
  H    2    (CENTRE  2)  -1.16703152 -0.92371355  2.09301364  CHARGE =  1.0
  H    3    (CENTRE  3)  -2.19443723 -0.70665048 -1.13113629  CHARGE =  1.0
  H    4    (CENTRE  4)  -1.35933380  2.10223096  0.57492382  CHARGE =  1.0
  Br   5    (CENTRE  5)   3.17507400 -0.31678581 -1.03329784  CHARGE = 35.0
  Cl   6    (CENTRE  6)  -5.51007210  0.54961931  1.79313214  CHARGE = 17.0
CENTRE ASSIGNMENTS    1  1  1  1  1  1  1  1  1  1  1  1  1  1  1  1  1  1  1  1
CENTRE ASSIGNMENTS    1  1  1  1  1  1  1  1  1  1  1  1  1  1  1  1  2  2  2  2
CENTRE ASSIGNMENTS    2  2  2  2  2  3  3  3  3  3  3  3  3  3  4  4  4  4  4  4
CENTRE ASSIGNMENTS    4  4  4  5  5  5  5  5  5  5  5  5  5  5  5  5  5  5  5  5
CENTRE ASSIGNMENTS    5  5  5  5  5  5  5  5  5  5  5  5  5  5  5  5  5  5  5  5
CENTRE ASSIGNMENTS    5  5  5  5  5  5  5  5  5  5  5  5  5  5  5  5  5  5  5  5
CENTRE ASSIGNMENTS    5  5  5  5  5  5  5  5  5  5  5  5  5  5  5  5  5  5  5  5
CENTRE ASSIGNMENTS    5  5  5  5  5  5  5  5  5  5  5  5  5  5  5  5  5  6  6  6
CENTRE ASSIGNMENTS    6  6  6  6  6  6  6  6  6  6  6  6  6  6  6  6  6  6  6  6
CENTRE ASSIGNMENTS    6  6  6  6  6  6  6  6  6  6  6  6  6  6  6  6  6  6  6  6
CENTRE ASSIGNMENTS    6  6  6  6  6  6  6  6  6  6
TYPE ASSIGNMENTS      1  1  1  1  1  1  1  1  1  2  2  2  3  3  3  4  4  4  1  2
TYPE ASSIGNMENTS      3  4  1  2  3  4  1  2  3  4  5  6  7  8  9 10  1  1  1  1
TYPE ASSIGNMENTS      1  1  2  3  4  1  1  1  1  1  1  2  3  4  1  1  1  1  1  1
TYPE ASSIGNMENTS      2  3  4  1  1  1  1  1  1  1  1  1  1  1  1  1  1  1  1  2
TYPE ASSIGNMENTS      3  4  2  2  2  3  3  3  4  4  4  2  2  2  3  3  3  4  4  4
TYPE ASSIGNMENTS      2  2  2  3  3  3  4  4  4  2  3  4  2  3  4  2  3  4  2  3
TYPE ASSIGNMENTS      4  5  5  5  5  6  6  6  6  7  7  7  7  8  8  8  8  9  9  9
TYPE ASSIGNMENTS      9 10 10 10 10  5  6  7  8  9 10  5  6  7  8  9 10  1  1  1
TYPE ASSIGNMENTS      1  1  1  1  1  1  1  1  1  1  1  2  3  4  2  2  2  2  2  3
TYPE ASSIGNMENTS      3  3  3  3  4  4  4  4  4  2  2  3  3  4  4  2  3  4  2  3
TYPE ASSIGNMENTS      4  2  3  4  5  6  7  8  9 10
EXPONENTS  0.4563240D+04 0.6820240D+03 0.1549730D+03 0.4445530D+02 0.1302900D+02
EXPONENTS  0.1827730D+01 0.2096420D+02 0.4803310D+01 0.1459330D+01 0.2096420D+02
EXPONENTS  0.4803310D+01 0.1459330D+01 0.2096420D+02 0.4803310D+01 0.1459330D+01
EXPONENTS  0.2096420D+02 0.4803310D+01 0.1459330D+01 0.4834560D+00 0.4834560D+00
EXPONENTS  0.4834560D+00 0.4834560D+00 0.1455850D+00 0.1455850D+00 0.1455850D+00
EXPONENTS  0.1455850D+00 0.4380000D-01 0.4380000D-01 0.4380000D-01 0.4380000D-01
EXPONENTS  0.6260000D+00 0.6260000D+00 0.6260000D+00 0.6260000D+00 0.6260000D+00
EXPONENTS  0.6260000D+00 0.3386500D+02 0.5094790D+01 0.1158790D+01 0.3258400D+00
EXPONENTS  0.1027410D+00 0.3600000D-01 0.7500000D+00 0.7500000D+00 0.7500000D+00
EXPONENTS  0.3386500D+02 0.5094790D+01 0.1158790D+01 0.3258400D+00 0.1027410D+00
EXPONENTS  0.3600000D-01 0.7500000D+00 0.7500000D+00 0.7500000D+00 0.3386500D+02
EXPONENTS  0.5094790D+01 0.1158790D+01 0.3258400D+00 0.1027410D+00 0.3600000D-01
EXPONENTS  0.7500000D+00 0.7500000D+00 0.7500000D+00 0.4397000D+06 0.6603000D+05
EXPONENTS  0.1514000D+05 0.4317000D+04 0.1414000D+04 0.5239000D+03 0.5239000D+03
EXPONENTS  0.2077000D+03 0.8654000D+02 0.3052000D+02 0.1298000D+02 0.4412000D+01
EXPONENTS  0.1862000D+01 0.3932000D+00 0.1400000D+00 0.3500000D-01 0.3500000D-01
EXPONENTS  0.3500000D-01 0.3500000D-01 0.2957000D+04 0.7003000D+03 0.2246000D+03
EXPONENTS  0.2957000D+04 0.7003000D+03 0.2246000D+03 0.2957000D+04 0.7003000D+03
EXPONENTS  0.2246000D+03 0.8259000D+02 0.3319000D+02 0.1420000D+02 0.8259000D+02
EXPONENTS  0.3319000D+02 0.1420000D+02 0.8259000D+02 0.3319000D+02 0.1420000D+02
EXPONENTS  0.1420000D+02 0.7438000D+01 0.3526000D+01 0.1420000D+02 0.7438000D+01
EXPONENTS  0.3526000D+01 0.1420000D+02 0.7438000D+01 0.3526000D+01 0.1595000D+01
EXPONENTS  0.1595000D+01 0.1595000D+01 0.8462000D+00 0.8462000D+00 0.8462000D+00
EXPONENTS  0.3186000D+00 0.3186000D+00 0.3186000D+00 0.1096000D+00 0.1096000D+00
EXPONENTS  0.1096000D+00 0.1348000D+03 0.3639000D+02 0.1216000D+02 0.4341000D+01
EXPONENTS  0.1348000D+03 0.3639000D+02 0.1216000D+02 0.4341000D+01 0.1348000D+03
EXPONENTS  0.3639000D+02 0.1216000D+02 0.4341000D+01 0.1348000D+03 0.3639000D+02
EXPONENTS  0.1216000D+02 0.4341000D+01 0.1348000D+03 0.3639000D+02 0.1216000D+02
EXPONENTS  0.4341000D+01 0.1348000D+03 0.3639000D+02 0.1216000D+02 0.4341000D+01
EXPONENTS  0.1535000D+01 0.1535000D+01 0.1535000D+01 0.1535000D+01 0.1535000D+01
EXPONENTS  0.1535000D+01 0.4510000D+00 0.4510000D+00 0.4510000D+00 0.4510000D+00
EXPONENTS  0.4510000D+00 0.4510000D+00 0.1058190D+06 0.1587200D+05 0.3619650D+04
EXPONENTS  0.1030800D+04 0.3399080D+03 0.1245380D+03 0.1245380D+03 0.4951350D+02
EXPONENTS  0.2080560D+02 0.6583460D+01 0.2564680D+01 0.5597630D+00 0.1832730D+00
EXPONENTS  0.4830000D-01 0.4830000D-01 0.4830000D-01 0.4830000D-01 0.5897760D+03
EXPONENTS  0.1398490D+03 0.4514130D+02 0.1687330D+02 0.2771520D+01 0.5897760D+03
EXPONENTS  0.1398490D+03 0.4514130D+02 0.1687330D+02 0.2771520D+01 0.5897760D+03
EXPONENTS  0.1398490D+03 0.4514130D+02 0.1687330D+02 0.2771520D+01 0.6741100D+01
EXPONENTS  0.2771520D+01 0.6741100D+01 0.2771520D+01 0.6741100D+01 0.2771520D+01
EXPONENTS  0.1023870D+01 0.1023870D+01 0.1023870D+01 0.3813680D+00 0.3813680D+00
EXPONENTS  0.3813680D+00 0.1094370D+00 0.1094370D+00 0.1094370D+00 0.7500000D+00
EXPONENTS  0.7500000D+00 0.7500000D+00 0.7500000D+00 0.7500000D+00 0.7500000D+00
MO    1     MO 0.0        OCC NO =    2.0000000  ORB. ENERGY = -482.558309
 -0.13238759D-06 -0.24645179D-06 -0.40541088D-06 -0.54439877D-06 -0.51257197D-06
 -0.42121451D-07  0.34030178D-06  0.90424554D-06 -0.12189862D-08  0.26184946D-05
  0.24502658D-05  0.18978256D-05 -0.26109529D-06 -0.24432086D-06 -0.18923595D-06
 -0.85204427D-06 -0.79730351D-06 -0.61754239D-06 -0.12440695D-05 -0.29363103D-05
  0.29317974D-06  0.95572530D-06  0.18846426D-05  0.31700399D-05 -0.31574658D-06
 -0.10313312D-05  0.18859821D-05  0.16302493D-05 -0.16256832D-06 -0.53051297D-06
  0.46945457D-06 -0.27041755D-06 -0.19903702D-06 -0.14871020D-06 -0.48625423D-06
  0.48256120D-07  0.30665085D-07  0.55315438D-07  0.81549537D-07 -0.11389317D-05
 -0.20553090D-05 -0.15179748D-05 -0.97729060D-06 -0.10298699D-06  0.64685702D-06
  0.30558423D-07  0.55123035D-07  0.81265883D-07 -0.11384384D-05 -0.20549146D-05
 -0.15182946D-05 -0.11734760D-05 -0.60793541D-07  0.28169108D-07  0.30777473D-07
  0.55518171D-07  0.81848417D-07 -0.11395278D-05 -0.20558092D-05 -0.15176693D-05
 -0.10149437D-05  0.47999884D-06  0.35549462D-06  0.38584358D+01  0.71955606D+01
  0.12109067D+02  0.19065833D+02  0.25289924D+02  0.16475087D+02  0.96359563D+01
  0.16238834D+02  0.34607838D+01  0.81720831D-01 -0.11305161D-01  0.24809076D-02
 -0.63964778D-03  0.69373199D-04 -0.20310160D-04  0.14287351D-05 -0.22622478D-06
  0.22537666D-07  0.73602659D-07 -0.99766902D-04 -0.13343112D-03 -0.15412323D-03
  0.99735976D-05  0.13338975D-04  0.15407546D-04  0.32495580D-04  0.43460520D-04
  0.50200254D-04 -0.29496809D-04 -0.13912652D-04 -0.24587674D-05  0.29487386D-05
  0.13908208D-05  0.24579820D-06  0.96075639D-05  0.45315647D-05  0.80085834D-06
  0.24234661D-05  0.50627358D-05  0.32260954D-05 -0.24209555D-06 -0.50574912D-06
 -0.32227534D-06 -0.78890257D-06 -0.16480550D-05 -0.10501797D-05 -0.86432934D-05
  0.86334559D-06  0.28134353D-05  0.69635753D-05 -0.69553791D-06 -0.22666440D-05
 -0.33256052D-05  0.33214165D-06  0.10824663D-05  0.20637325D-05 -0.20608183D-06
 -0.67171717D-06 -0.55763067D-04 -0.41567448D-04 -0.19268428D-04 -0.45054245D-05
  0.32141177D-04  0.23958989D-04  0.11106096D-04  0.25968738D-05  0.23621890D-04
  0.17608459D-04  0.81623325D-05  0.19085507D-05  0.17742295D-04  0.13225635D-04
  0.61306912D-05  0.14335039D-05  0.57806627D-04  0.43090778D-04  0.19974562D-04
  0.46705356D-05 -0.57728643D-05 -0.43032646D-05 -0.19947615D-05 -0.46642348D-06
  0.43757495D-05 -0.25221750D-05 -0.18535745D-05 -0.13922881D-05 -0.45361609D-05
  0.45311429D-06 -0.10749272D-05  0.61958810D-06  0.45533913D-06  0.34201342D-06
  0.11143288D-05 -0.11131207D-06  0.68115855D-07  0.12719997D-06  0.21652968D-06
  0.33565730D-06  0.45199721D-06  0.34258565D-06 -0.24781865D-06 -0.57727235D-06
 -0.14081031D-06  0.92501031D-06 -0.88657452D-06  0.53976510D-06 -0.55146720D-07
  0.64543112D-05  0.58305139D-06 -0.58059857D-07 -0.18968950D-06 -0.25335803D-05
 -0.32444125D-05 -0.34714865D-05 -0.27623070D-05 -0.63575975D-06  0.25109927D-06
  0.32154875D-06  0.34405372D-06  0.27376802D-06  0.63009176D-07  0.82355765D-06
  0.10546185D-05  0.11284305D-05  0.89790682D-06  0.20665806D-06  0.21205173D-05
 -0.44064401D-06 -0.21008559D-06  0.43655836D-07 -0.68924389D-06  0.14322505D-06
  0.61723290D-06 -0.61206788D-07 -0.20065451D-06 -0.56977665D-07  0.55434680D-08
  0.18455106D-07  0.11164700D-05 -0.11125845D-06 -0.36327251D-06  0.63418684D-06
 -0.36550787D-06 -0.26867897D-06 -0.20117270D-06 -0.65707022D-06  0.65427107D-07
MO    2     MO 0.0        OCC NO =    2.0000000  ORB. ENERGY = -101.400772
  0.15877011D-05  0.29556530D-05  0.48620214D-05  0.65288788D-05  0.61471855D-05
  0.50515515D-06 -0.37438716D-05 -0.99481678D-05  0.13410825D-07 -0.42006146D-04
 -0.39307403D-04 -0.30445103D-04  0.41871108D-05  0.39181041D-05  0.30347231D-05
  0.13668911D-04  0.12790733D-04  0.99069170D-05 -0.71463178D-05  0.21921847D-04
 -0.21847041D-05 -0.71339800D-05  0.55631708D-04 -0.24491240D-04  0.24413991D-05
  0.79694245D-05 -0.11397993D-03  0.25696397D-04 -0.25615708D-05 -0.83615401D-05
 -0.78803099D-05  0.45426260D-05  0.33376839D-05  0.25023201D-05  0.81641832D-05
 -0.81324423D-06  0.71835364D-06  0.12958075D-05  0.19103618D-05 -0.21381840D-04
  0.24083995D-05  0.36163578D-05  0.14893145D-04 -0.89618464D-05  0.74642743D-05
  0.71831820D-06  0.12957436D-05  0.19102675D-05 -0.21381816D-04  0.24082031D-05
  0.36169659D-05  0.75116755D-05 -0.74023894D-05 -0.15706766D-04  0.71841479D-06
  0.12959178D-05  0.19105244D-05 -0.21382820D-04  0.24082795D-05  0.36158695D-05
  0.13513657D-04  0.12785774D-04 -0.34459269D-05  0.34325028D-07  0.64012421D-07
  0.10772346D-06  0.16961154D-06  0.22498167D-06  0.14656401D-06 -0.11740757D-05
 -0.19785914D-05 -0.42167295D-06  0.71428692D-05 -0.10067922D-04  0.95119841D-05
 -0.65208255D-05  0.41350340D-05 -0.65483182D-05 -0.14808642D-04  0.20960208D-05
 -0.20952966D-06 -0.68231706D-06  0.15273536D-04  0.20427265D-04  0.23595067D-04
 -0.15274003D-05 -0.20427889D-05 -0.23595788D-05 -0.49723151D-05 -0.66501167D-05
 -0.76813979D-05 -0.48291679D-04 -0.22777560D-04 -0.40254526D-05  0.48294295D-05
  0.22778794D-05  0.40256707D-06  0.15721451D-04  0.74152793D-05  0.13104940D-05
  0.58694868D-05  0.12261637D-04  0.78134060D-05 -0.58699358D-06 -0.12262575D-05
 -0.78140036D-06 -0.19108308D-05 -0.39918163D-05 -0.25436800D-05 -0.20448153D-04
  0.20452309D-05  0.66571157D-05  0.14339420D-04 -0.14345679D-05 -0.46685478D-05
 -0.35231289D-05  0.35297059D-06  0.11473296D-05  0.14043397D-05 -0.14080001D-06
 -0.45739441D-06  0.16753437D-03  0.12488510D-03  0.57889999D-04  0.13536082D-04
 -0.96563387D-04 -0.71981219D-04 -0.33366613D-04 -0.78019211D-05 -0.70970980D-04
 -0.52903879D-04 -0.24523386D-04 -0.57341608D-05 -0.53172801D-04 -0.39636587D-04
 -0.18373385D-04 -0.42961418D-05 -0.17358709D-03 -0.12939698D-03 -0.59981463D-04
 -0.14025117D-04  0.17302346D-04  0.12897683D-04  0.59786706D-05  0.13979578D-05
 -0.13112847D-04  0.75579748D-05  0.55548722D-05  0.41618649D-05  0.13586641D-04
 -0.13542628D-05  0.32638163D-05 -0.18811928D-05 -0.13826235D-05 -0.10359355D-05
 -0.33817904D-05  0.33708752D-06  0.12702089D+01  0.23719960D+01  0.40377962D+01
  0.62592607D+01  0.84287408D+01  0.63884590D+01  0.23318124D+01  0.54317577D+01
  0.13249335D+01  0.43923383D-01 -0.57132495D-02  0.68929618D-03 -0.22706574D-03
  0.14794343D-03  0.21791434D-04 -0.21713729D-05 -0.70904218D-05  0.78477814D-03
  0.10049588D-02  0.10752952D-02  0.85562637D-03  0.19692699D-03 -0.78189419D-04
 -0.10012658D-03 -0.10713436D-03 -0.85248206D-04 -0.19620331D-04 -0.25535146D-03
 -0.32699396D-03 -0.34988003D-03 -0.27840409D-03 -0.64076192D-04 -0.15253289D-03
  0.31696372D-04  0.15196361D-04 -0.31578076D-05  0.49631099D-04 -0.10313354D-04
 -0.54378763D-04  0.54175561D-05  0.17693684D-04  0.26417421D-05 -0.26292190D-06
 -0.85950894D-06 -0.18354879D-04  0.18290797D-05  0.59723206D-05 -0.15370420D-04
  0.88592120D-05  0.65112081D-05  0.48781083D-05  0.15926190D-04 -0.15873115D-05
MO    3     MO 0.0        OCC NO =    2.0000000  ORB. ENERGY =  -62.211447
 -0.13153817D-05 -0.24487052D-05 -0.40280970D-05 -0.54090582D-05 -0.50928322D-05
 -0.41851193D-06  0.41229988D-05  0.10955580D-04 -0.14768887D-07  0.35975400D-04
  0.33664111D-04  0.26074155D-04 -0.35872148D-05 -0.33567492D-05 -0.25999320D-05
 -0.11706231D-04 -0.10954148D-04 -0.84844114D-05 -0.17450200D-04 -0.41212738D-04
  0.41148693D-05  0.13414090D-04  0.26629869D-04  0.44855478D-04 -0.44677561D-05
 -0.14593144D-04  0.27426318D-04  0.23168133D-04 -0.23103212D-05 -0.75393342D-05
  0.65357346D-05 -0.37646958D-05 -0.27710388D-05 -0.20704233D-05 -0.67697178D-05
  0.67180498D-06  0.40124612D-06  0.72379076D-06  0.10670584D-05 -0.15992543D-04
 -0.29331051D-04 -0.21725483D-04 -0.13649069D-04 -0.14509795D-05  0.90550624D-05
  0.39977086D-06  0.72112960D-06  0.10631351D-05 -0.15985661D-04 -0.29325413D-04
 -0.21730054D-04 -0.16401526D-04 -0.85907175D-06  0.37497743D-06  0.40280011D-06
  0.72659393D-06  0.10711910D-05 -0.16000866D-04 -0.29338190D-04 -0.21721131D-04
 -0.14177340D-04  0.67279699D-05  0.49673381D-05 -0.12742135D+01 -0.23762688D+01
 -0.39989098D+01 -0.62963189D+01 -0.83517686D+01 -0.54407484D+01 -0.53839918D+01
 -0.90732819D+01 -0.19336774D+01  0.58198893D+01  0.24292077D+01  0.10309237D+00
 -0.10925411D-01  0.10063511D-02 -0.29166894D-03  0.20528170D-04 -0.32324330D-05
  0.32203256D-06  0.10516782D-05 -0.18942439D-02 -0.25334161D-02 -0.29262910D-02
  0.19000549D-03  0.25411878D-03  0.29352680D-03  0.61855661D-03  0.82727534D-03
  0.95556684D-03 -0.28573305D-02 -0.13477067D-02 -0.23817869D-03  0.28650857D-03
  0.13513645D-03  0.23882514D-04  0.93280248D-03  0.43997155D-03  0.77755678D-04
  0.21969908D-04  0.45896183D-04  0.29246137D-04 -0.21914657D-05 -0.45780760D-05
 -0.29172587D-05 -0.71436883D-05 -0.14923504D-04 -0.95096111D-05 -0.11132404D-03
  0.11118000D-04  0.36230665D-04  0.94429552D-04 -0.94314897D-05 -0.30735305D-04
 -0.46646359D-04  0.46587481D-05  0.15183039D-04  0.29250278D-04 -0.29208959D-05
 -0.95205647D-05 -0.50986954D-03 -0.38007191D-03 -0.17618085D-03 -0.41195344D-04
  0.29375008D-03  0.21897004D-03  0.10150271D-03  0.23733788D-04  0.21611946D-03
  0.16110187D-03  0.74678142D-04  0.17461556D-04  0.16213189D-03  0.12085793D-03
  0.56023223D-04  0.13099584D-04  0.52841045D-03  0.39389286D-03  0.18258750D-03
  0.42693373D-04 -0.52461450D-04 -0.39106325D-04 -0.18127584D-04 -0.42386675D-05
  0.57442634D-04 -0.33108047D-04 -0.24334587D-04 -0.18276731D-04 -0.59546305D-04
  0.59440163D-05 -0.14840768D-04  0.85541562D-05  0.62866114D-05  0.47219287D-05
  0.15384655D-04 -0.15366317D-05  0.20528337D-06  0.38334743D-06  0.65256383D-06
  0.10115833D-05  0.13622013D-05  0.10324635D-05 -0.21238289D-05 -0.49472779D-05
 -0.12067575D-05  0.11273283D-04 -0.11665814D-04  0.75264921D-05 -0.86748552D-06
  0.91617534D-04  0.82719645D-05 -0.82371497D-06 -0.26911935D-05 -0.29527020D-04
 -0.37811247D-04 -0.40457629D-04 -0.32192662D-04 -0.74093135D-05  0.29266220D-05
  0.37477276D-05  0.40100283D-05  0.31908317D-05  0.73438700D-06  0.95980676D-05
  0.12290942D-04  0.13151177D-04  0.10464562D-04  0.24084751D-05  0.22790833D-04
 -0.47359406D-05 -0.22582425D-05  0.46926334D-06 -0.74079804D-05  0.15393801D-05
  0.79176502D-05 -0.78516506D-06 -0.25739302D-05 -0.65083660D-06  0.63026407D-07
  0.21061472D-06  0.15817649D-04 -0.15762667D-05 -0.51466851D-05  0.89889711D-05
 -0.51807187D-05 -0.38082523D-05 -0.28514417D-05 -0.93133285D-05  0.92737698D-06
MO    4     MO 0.0        OCC NO =    2.0000000  ORB. ENERGY =  -56.029265
 -0.29567996D-05 -0.55043569D-05 -0.90546153D-05 -0.12158829D-04 -0.11447996D-04
 -0.94075801D-06  0.81285594D-05  0.21599104D-04 -0.29117102D-07 -0.29822184D-04
 -0.27906216D-04 -0.21614443D-04  0.29847846D-05  0.27930230D-05  0.21633043D-05
  0.97086135D-05  0.90848702D-05  0.70365831D-05 -0.17036357D-04  0.71352084D-05
 -0.73144704D-06 -0.23331182D-05 -0.57619777D-04 -0.20866807D-04  0.20819071D-05
  0.67890370D-05 -0.96637677D-04  0.48225630D-04 -0.48091012D-05 -0.15692913D-04
  0.34698684D-04 -0.20006865D-04 -0.14691819D-04 -0.11022320D-04 -0.35952474D-04
  0.35925681D-05 -0.11070435D-04 -0.19969486D-04 -0.29440286D-04  0.81917896D-04
 -0.12105798D-04  0.67173930D-05  0.26016777D-04  0.32128769D-04 -0.65643856D-04
 -0.11069493D-04 -0.19967785D-04 -0.29437779D-04  0.81916411D-04 -0.12116786D-04
  0.67312995D-05  0.60300721D-04  0.24874785D-04  0.41952814D-04 -0.11071021D-04
 -0.19970543D-04 -0.29441844D-04  0.81919391D-04 -0.12102268D-04  0.67097398D-05
  0.32427660D-04 -0.68883799D-04 -0.14972587D-04 -0.31365818D-04 -0.58493819D-04
 -0.98436466D-04 -0.15498909D-03 -0.20558568D-03 -0.13392851D-03 -0.14332486D-03
 -0.24153582D-03 -0.51475571D-04  0.19977484D-03 -0.13285956D-04  0.77760121D-04
 -0.53422860D-04  0.23900828D-04 -0.17128397D-04 -0.49724616D-04 -0.21395888D-06
  0.23594433D-07  0.72281877D-07  0.83022267D+02  0.11103636D+03  0.12825556D+03
 -0.83148976D+01 -0.11120582D+02 -0.12845131D+02 -0.27050332D+02 -0.36177890D+02
 -0.41788254D+02  0.10675170D+03  0.50351184D+02  0.88985083D+01 -0.10691463D+02
 -0.50428032D+01 -0.89120895D+00 -0.34781860D+02 -0.16405433D+02 -0.28993138D+01
  0.94803955D-01  0.19804997D+00  0.12620214D+00 -0.94948397D-02 -0.19835171D-01
 -0.12639442D-01 -0.30889016D-01 -0.64528623D-01 -0.41119170D-01 -0.35533890D-01
  0.35587211D-02  0.11577556D-01  0.99680669D-02 -0.99825895D-03 -0.32477196D-02
 -0.10305936D-02  0.10319399D-03  0.33576301D-03  0.11658343D-03 -0.11669688D-04
 -0.37978044D-04 -0.40623462D-04 -0.30281936D-04 -0.14037073D-04 -0.32822072D-05
  0.23537794D-04  0.17545772D-04  0.81332738D-05  0.19017561D-05  0.17085668D-04
  0.12736165D-04  0.59037994D-05  0.13804511D-05  0.13361005D-04  0.99596905D-05
  0.46167756D-05  0.10795138D-05  0.42861071D-04  0.31949917D-04  0.14810259D-04
  0.34629967D-05 -0.44497881D-05 -0.33170043D-05 -0.15375844D-05 -0.35952442D-06
 -0.16480547D-04  0.94962974D-05  0.69842498D-05  0.52285556D-05  0.17070150D-04
 -0.16988643D-05  0.51168989D-05 -0.29490674D-05 -0.21678315D-05 -0.16244049D-05
 -0.53019569D-05  0.52853536D-06  0.36183970D-06  0.67570169D-06  0.11502320D-05
  0.17830524D-05  0.24010641D-05  0.18198566D-05 -0.40236288D-05 -0.93726993D-05
 -0.22862220D-05  0.22001150D-04 -0.23309321D-04  0.19955631D-04 -0.26057050D-04
  0.16769761D-03  0.17120352D-04 -0.17035933D-05 -0.55692535D-05 -0.10582218D-03
 -0.13551210D-03 -0.14499650D-03 -0.11537560D-03 -0.26554312D-04  0.10563819D-04
  0.13527649D-04  0.14474439D-04  0.11517500D-04  0.26508142D-05  0.34451538D-04
  0.44117408D-04  0.47205154D-04  0.37561755D-04  0.86450391D-05  0.82283900D-04
 -0.17098615D-04 -0.82145108D-05  0.17069774D-05 -0.26788846D-04  0.55667288D-05
  0.29305505D-04 -0.29250387D-05 -0.95403009D-05 -0.16186276D-04  0.16154576D-05
  0.52692630D-05  0.84228333D-05 -0.84119518D-06 -0.27419559D-05 -0.12668858D-05
  0.73029018D-06  0.53659561D-06  0.40301425D-06  0.13131320D-05 -0.13088190D-06
MO    5     MO 0.0        OCC NO =    2.0000000  ORB. ENERGY =  -56.029151
 -0.58141583D-09 -0.10823595D-08 -0.17804713D-08 -0.23908741D-08 -0.22510981D-08
 -0.18498772D-09  0.12807902D-08  0.34032994D-08 -0.45878854D-11  0.53452482D-05
  0.50018354D-05  0.38741148D-05  0.69436758D-05  0.64975697D-05  0.50326189D-05
  0.14353924D-04  0.13431736D-04  0.10403399D-04 -0.87393395D-09 -0.41506200D-05
 -0.53822736D-05 -0.11130401D-04 -0.30575874D-07  0.32668528D-05  0.42474461D-05
  0.87775774D-05 -0.27879280D-07 -0.83723004D-06 -0.11034735D-05 -0.22812333D-05
  0.63684249D-06 -0.21802495D-05  0.15434070D-05  0.17931711D-05  0.23596037D-05
  0.56593445D-05  0.44740633D-06  0.80705718D-06  0.11898150D-05 -0.15742594D-06
 -0.11069560D-04  0.12809995D-04 -0.12819745D-04 -0.81557840D-05 -0.14145398D-06
 -0.86081456D-06 -0.15527867D-05 -0.22892168D-05  0.39689736D-06  0.20993364D-04
 -0.24288942D-04  0.21422706D-04 -0.22368058D-06 -0.39824923D-05  0.40081120D-06
  0.72300621D-06  0.10659017D-05 -0.14018696D-06 -0.99211861D-05  0.11482574D-04
 -0.12572286D-04  0.31625515D-05 -0.66689562D-05  0.21234931D-07  0.39600822D-07
  0.66642340D-07  0.10492896D-06  0.13918329D-06  0.90670764D-07  0.85535263D-07
  0.14414687D-06  0.30720256D-07 -0.83378560D-07 -0.61454486D-07  0.25226508D-07
 -0.18629038D-07  0.73461971D-08 -0.45419608D-08 -0.12703910D-07 -0.27219289D-05
 -0.35232025D-05 -0.72783428D-05  0.28004208D+02  0.37453630D+02  0.43261832D+02
  0.36218756D+02  0.48440002D+02  0.55951940D+02  0.74816736D+02  0.10006205D+03
  0.11557938D+03  0.36008546D+02  0.16984020D+02  0.30015667D+01  0.46571028D+02
  0.21965987D+02  0.38820243D+01  0.96201325D+02  0.45374929D+02  0.80190602D+01
  0.31950826D-01  0.66746795D-01  0.42532641D-01  0.41323000D-01  0.86325711D-01
  0.55008791D-01  0.85360523D-01  0.17832219D+00  0.11363113D+00 -0.11890867D-01
 -0.15378678D-01 -0.31767585D-01  0.32912105D-02  0.42565039D-02  0.87926170D-02
 -0.32470411D-03 -0.41991121D-03 -0.86740570D-03  0.32664075D-04  0.42235755D-04
  0.87245930D-04 -0.17909251D-03 -0.13350088D-03 -0.61883813D-04 -0.14469932D-04
  0.24075819D-04  0.17946831D-04  0.83191835D-05  0.19452263D-05  0.15501669D-03
  0.11555405D-03  0.53564629D-04  0.12524706D-04 -0.21430507D-03 -0.15974937D-03
 -0.74051196D-04 -0.17314961D-04 -0.42064254D-03 -0.31355946D-03 -0.14534926D-03
 -0.33986173D-04  0.12035376D-03  0.89715269D-04  0.41587163D-04  0.97240844D-05
  0.33382051D-05 -0.55259280D-06 -0.27856123D-05  0.40643564D-05  0.79201210D-05
 -0.19272680D-05 -0.58605253D-06  0.10286153D-06  0.48319099D-06 -0.71841630D-06
 -0.13977058D-05  0.32166366D-06  0.98335725D-10  0.18363274D-09  0.31259394D-09
  0.48457299D-09  0.65252757D-09  0.49457513D-09 -0.10946644D-08 -0.25499272D-08
 -0.62198725D-09  0.59591254D-08 -0.62525626D-08  0.50480795D-08 -0.68542840D-08
  0.44976222D-07 -0.22209359D-06 -0.29374565D-06 -0.60764538D-06 -0.12969828D-04
 -0.16608699D-04 -0.17771130D-04 -0.14140719D-04 -0.32545622D-05 -0.16778557D-04
 -0.21486021D-04 -0.22989812D-04 -0.18293293D-04 -0.42102993D-05 -0.34664029D-04
 -0.44389516D-04 -0.47496307D-04 -0.37793429D-04 -0.86983601D-05  0.10432231D-04
 -0.21678202D-05  0.13496626D-04 -0.28046022D-05  0.27883779D-04 -0.57942561D-05
  0.32761877D-05  0.42375244D-05  0.87545033D-05 -0.17137521D-05 -0.22161085D-05
 -0.45783588D-05  0.54335715D-06  0.70223173D-06  0.14508786D-05 -0.99225529D-07
  0.30664589D-06 -0.20742037D-06 -0.26437243D-06 -0.35713211D-06 -0.78615292D-06
MO    6     MO 0.0        OCC NO =    2.0000000  ORB. ENERGY =  -56.029151
 -0.30978883D-10 -0.57670066D-10 -0.94866716D-10 -0.12739008D-09 -0.11994256D-09
 -0.98564787D-11 -0.10452593D-09 -0.27774496D-09  0.37441960D-12 -0.79199953D-06
 -0.74111642D-06 -0.57402331D-06  0.15221030D-04  0.14243134D-04  0.11031858D-04
 -0.70759055D-05 -0.66213042D-05 -0.51284560D-05  0.13484533D-08  0.61292770D-06
 -0.11794925D-04  0.54859612D-05 -0.11869604D-07 -0.48491055D-06  0.93130298D-05
 -0.43277967D-05  0.14807609D-08  0.12592996D-06 -0.24175104D-05  0.11232040D-05
  0.10863887D-06 -0.30657390D-05  0.29571001D-05 -0.10959229D-05  0.11140095D-05
 -0.41229686D-05 -0.72994990D-06 -0.13167255D-05 -0.19412004D-05  0.32473677D-06
  0.17846711D-04 -0.20651652D-04  0.15198187D-04 -0.52855679D-05 -0.11051992D-04
 -0.28462592D-07 -0.51342455D-07 -0.75692311D-07  0.24436201D-07  0.66122862D-06
 -0.76528200D-06  0.13503170D-05 -0.10496633D-04  0.51473841D-05  0.75430914D-06
  0.13606661D-05  0.20059804D-05 -0.31527599D-06 -0.18504025D-04  0.21414319D-04
 -0.15937415D-04  0.43576466D-05  0.11211078D-04 -0.49194770D-08 -0.91742864D-08
 -0.15438970D-07 -0.24308795D-07 -0.32244465D-07 -0.21005613D-07 -0.21419935D-07
 -0.36097587D-07 -0.76930365D-08  0.26180859D-07  0.42978678D-08  0.60332945D-08
 -0.39972737D-08  0.13124860D-08 -0.55395127D-09 -0.69763222D-09  0.39683858D-06
 -0.77281536D-05  0.35927839D-05 -0.40773459D+01 -0.54531593D+01 -0.62988197D+01
  0.79452136D+02  0.10626156D+03  0.12274030D+03 -0.36936584D+02 -0.49400047D+02
 -0.57060865D+02 -0.52427586D+01 -0.24728328D+01 -0.43702097D+00  0.10216164D+03
  0.48186211D+02  0.85158949D+01 -0.47494031D+02 -0.22401336D+02 -0.39589630D+01
 -0.46519502D-02 -0.97181451D-02 -0.61926326D-02  0.90649196D-01  0.18937048D+00
  0.12067136D+00 -0.42142002D-01 -0.88036646D-01 -0.56099039D-01  0.17312315D-02
 -0.33735853D-01  0.15683514D-01 -0.47915458D-03  0.93374139D-02 -0.43408936D-02
  0.47264371D-04 -0.92115513D-03  0.42824086D-03 -0.47533734D-05  0.92652553D-04
 -0.43074242D-04  0.26065901D-04  0.19430298D-04  0.90068387D-05  0.21060167D-05
  0.52472148D-04  0.39114299D-04  0.18131281D-04  0.42395319D-05 -0.78538050D-04
 -0.58544597D-04 -0.27138119D-04 -0.63455486D-05 -0.50920607D-03 -0.37957734D-03
 -0.17595159D-03 -0.41141738D-04  0.22660427D-03  0.16891756D-03  0.78301076D-04
  0.18308685D-04  0.14398177D-03  0.10732829D-03  0.49751609D-04  0.11633129D-04
 -0.48169333D-06 -0.11274562D-05  0.16091495D-05  0.93642903D-05 -0.41296244D-05
 -0.28758071D-05  0.84652749D-07  0.20583720D-06 -0.29048995D-06 -0.16400409D-05
  0.72119274D-06  0.51598647D-06  0.69371716D-11  0.12954517D-10  0.22052187D-10
  0.34184585D-10  0.46033074D-10  0.34890194D-10 -0.77625516D-10 -0.18082200D-09
 -0.44106743D-10  0.41335471D-09 -0.41243887D-09  0.17519264D-09 -0.34069611D-09
  0.16683106D-08  0.33134569D-07 -0.64326195D-06  0.29914664D-06  0.19063303D-05
  0.24411785D-05  0.26120348D-05  0.20784300D-05  0.47836181D-06 -0.36806697D-04
 -0.47133341D-04 -0.50432169D-04 -0.40129533D-04 -0.92360270D-05  0.17106745D-04
  0.21906287D-04  0.23439492D-04  0.18651109D-04  0.42926526D-05 -0.15335026D-05
  0.31866221D-06  0.29607069D-04 -0.61523562D-05 -0.13760559D-04  0.28594474D-05
 -0.48142470D-06  0.92958602D-05 -0.43204558D-05  0.25170634D-06 -0.48615161D-05
  0.22595408D-05 -0.80239982D-07  0.15406583D-05 -0.71596194D-06 -0.13741847D-07
  0.43311230D-06 -0.41937045D-06  0.12456310D-06 -0.14303491D-06  0.58653411D-06
MO    7     MO 0.0        OCC NO =    2.0000000  ORB. ENERGY =  -10.079952
  0.43813795D+00  0.81563447D+00  0.13417110D+01  0.18016927D+01  0.16963616D+01
  0.13940133D+00  0.37089072D+00  0.98552610D+00 -0.13285580D-02 -0.28354037D-02
 -0.26532392D-02 -0.20550364D-02  0.28287663D-03  0.26470283D-03  0.20502258D-03
  0.92272354D-03  0.86344189D-03  0.66876912D-03  0.79300413D-02  0.14696556D-02
 -0.14655622D-03 -0.47823043D-03 -0.14970708D-02  0.58152765D-04 -0.57930204D-05
 -0.18925522D-04 -0.63831170D-03 -0.91261186D-04  0.91037241D-05  0.29698913D-04
 -0.11061824D-02  0.63756569D-03  0.46861669D-03  0.35111436D-03  0.11460984D-02
 -0.11423431D-03  0.54784256D-04  0.98822982D-04  0.14569112D-03 -0.12799226D-02
  0.73046637D-03  0.18603731D-04  0.97316734D-03 -0.13127728D-02  0.16850120D-02
  0.54784328D-04  0.98823112D-04  0.14569132D-03 -0.12799611D-02  0.73048199D-03
  0.18592447D-04 -0.22735134D-03 -0.10591662D-02 -0.20823869D-02  0.54784925D-04
  0.98824188D-04  0.14569290D-03 -0.12799119D-02  0.73045169D-03  0.18621020D-04
  0.74846705D-03  0.22229556D-02 -0.88843964D-04 -0.40205171D-06 -0.74978246D-06
 -0.12617732D-05 -0.19866731D-05 -0.26352278D-05 -0.17167156D-05  0.69968110D-05
  0.11791258D-04  0.25129265D-05 -0.64186227D-04  0.11536450D-03 -0.14394670D-03
  0.11728396D-03 -0.53982811D-04  0.48853554D-04  0.14934172D-03 -0.22056697D-04
  0.22018640D-05  0.71788340D-05  0.43626978D-04  0.58347972D-04  0.67396409D-04
 -0.43976394D-05 -0.58815290D-05 -0.67936197D-05 -0.14229867D-04 -0.19031433D-04
 -0.21982773D-04  0.22635067D-03  0.10676199D-03  0.18867927D-04 -0.22749282D-04
 -0.10730071D-04 -0.18963134D-05 -0.73779575D-04 -0.34799343D-04 -0.61500489D-05
 -0.36116317D-04 -0.75448702D-04 -0.48077703D-04  0.36266678D-05  0.75762815D-05
  0.48277863D-05  0.11769882D-04  0.24587843D-04  0.15667957D-04  0.19846681D-03
 -0.19897738D-04 -0.64655477D-04 -0.20056225D-03  0.20084966D-04  0.65322076D-04
  0.10411080D-03 -0.10411259D-04 -0.33898108D-04 -0.31248419D-04  0.31282966D-05
  0.10176792D-04 -0.11496196D-03 -0.85696060D-04 -0.39724074D-04 -0.92884492D-05
  0.66329271D-04  0.49443810D-04  0.22919485D-04  0.53591299D-05  0.48632686D-04
  0.36252250D-04  0.16804589D-04  0.39293193D-05  0.36369522D-04  0.27110923D-04
  0.12567162D-04  0.29385065D-05  0.11891158D-03  0.88640224D-04  0.41088829D-04
  0.96075621D-05 -0.11899424D-04 -0.88701846D-05 -0.41117394D-05 -0.96142412D-06
  0.16405153D-04 -0.94621818D-05 -0.69429711D-05 -0.51949344D-05 -0.16977422D-04
  0.16967658D-05 -0.15389438D-04  0.88724203D-05  0.65170177D-05  0.48809028D-05
  0.15938479D-04 -0.15904462D-05 -0.96786238D-05 -0.18073922D-04 -0.30766836D-04
 -0.47693752D-04 -0.64224562D-04 -0.48678206D-04 -0.41497534D-04 -0.96664958D-04
 -0.23578859D-04  0.11594106D-03 -0.73113505D-04 -0.43123385D-04  0.23007955D-03
 -0.32517229D-05 -0.29627331D-05  0.28997332D-06  0.96080900D-06 -0.10886370D-02
 -0.13940696D-02 -0.14916396D-02 -0.11869170D-02 -0.27317530D-03  0.10849623D-03
  0.13893640D-03  0.14866046D-03  0.11829106D-03  0.27225321D-04  0.35422576D-03
  0.45360885D-03  0.48535661D-03  0.38620457D-03  0.88887049D-04  0.58965739D-03
 -0.12253095D-03 -0.58766591D-04  0.12211712D-04 -0.19186574D-03  0.39869747D-04
  0.12506236D-03 -0.12465004D-04 -0.40692282D-04  0.14914913D-03 -0.14864382D-04
 -0.48532476D-04  0.64611928D-04 -0.64357187D-05 -0.21022345D-04  0.19726622D-03