 Single Point Energy
GAUSSIAN             31 MOL ORBITALS    210 PRIMITIVES        6 NUCLEI   B3LYP
  C    1    (CENTRE  1)   0.00027315 -0.01195238  1.30614009  CHARGE =  6.0
  H    2    (CENTRE  2)  -1.08546215 -1.72035348  1.42662045  CHARGE =  1.0
  H    3    (CENTRE  3)  -0.93531908  1.78065492  1.45841249  CHARGE =  1.0
  H    4    (CENTRE  4)   2.02165628 -0.09987461  1.44149646  CHARGE =  1.0
  Br   5    (CENTRE  5)   0.00021568  0.02959512 -3.25964228  CHARGE = 35.0
  Cl   6    (CENTRE  6)  -0.00059192 -0.05438480  5.99553588  CHARGE = 17.0
CENTRE ASSIGNMENTS    1  1  1  1  1  1  1  1  1  1  1  1  1  1  1  1  1  1  1  1
CENTRE ASSIGNMENTS    1  1  1  1  1  1  1  1  1  1  1  1  1  1  1  1  2  2  2  2
CENTRE ASSIGNMENTS    2  2  2  2  2  3  3  3  3  3  3  3  3  3  4  4  4  4  4  4
CENTRE ASSIGNMENTS    4  4  4  5  5  5  5  5  5  5  5  5  5  5  5  5  5  5  5  5
CENTRE ASSIGNMENTS    5  5  5  5  5  5  5  5  5  5  5  5  5  5  5  5  5  5  5  5
CENTRE ASSIGNMENTS    5  5  5  5  5  5  5  5  5  5  5  5  5  5  5  5  5  5  5  5
CENTRE ASSIGNMENTS    5  5  5  5  5  5  5  5  5  5  5  5  5  5  5  5  5  5  5  5
CENTRE ASSIGNMENTS    5  5  5  5  5  5  5  5  5  5  5  5  5  5  5  5  5  6  6  6
CENTRE ASSIGNMENTS    6  6  6  6  6  6  6  6  6  6  6  6  6  6  6  6  6  6  6  6
CENTRE ASSIGNMENTS    6  6  6  6  6  6  6  6  6  6  6  6  6  6  6  6  6  6  6  6
CENTRE ASSIGNMENTS    6  6  6  6  6  6  6  6  6  6
TYPE ASSIGNMENTS      1  1  1  1  1  1  1  1  1  2  2  2  3  3  3  4  4  4  1  2
TYPE ASSIGNMENTS      3  4  1  2  3  4  1  2  3  4  5  6  7  8  9 10  1  1  1  1
TYPE ASSIGNMENTS      1  1  2  3  4  1  1  1  1  1  1  2  3  4  1  1  1  1  1  1
TYPE ASSIGNMENTS      2  3  4  1  1  1  1  1  1  1  1  1  1  1  1  1  1  1  1  2
TYPE ASSIGNMENTS      3  4  2  2  2  3  3  3  4  4  4  2  2  2  3  3  3  4  4  4
TYPE ASSIGNMENTS      2  2  2  3  3  3  4  4  4  2  3  4  2  3  4  2  3  4  2  3
TYPE ASSIGNMENTS      4  5  5  5  5  6  6  6  6  7  7  7  7  8  8  8  8  9  9  9
TYPE ASSIGNMENTS      9 10 10 10 10  5  6  7  8  9 10  5  6  7  8  9 10  1  1  1
TYPE ASSIGNMENTS      1  1  1  1  1  1  1  1  1  1  1  2  3  4  2  2  2  2  2  3
TYPE ASSIGNMENTS      3  3  3  3  4  4  4  4  4  2  2  3  3  4  4  2  3  4  2  3
TYPE ASSIGNMENTS      4  2  3  4  5  6  7  8  9 10
EXPONENTS  0.4563240D+04 0.6820240D+03 0.1549730D+03 0.4445530D+02 0.1302900D+02
EXPONENTS  0.1827730D+01 0.2096420D+02 0.4803310D+01 0.1459330D+01 0.2096420D+02
EXPONENTS  0.4803310D+01 0.1459330D+01 0.2096420D+02 0.4803310D+01 0.1459330D+01
EXPONENTS  0.2096420D+02 0.4803310D+01 0.1459330D+01 0.4834560D+00 0.4834560D+00
EXPONENTS  0.4834560D+00 0.4834560D+00 0.1455850D+00 0.1455850D+00 0.1455850D+00
EXPONENTS  0.1455850D+00 0.4380000D-01 0.4380000D-01 0.4380000D-01 0.4380000D-01
EXPONENTS  0.6260000D+00 0.6260000D+00 0.6260000D+00 0.6260000D+00 0.6260000D+00
EXPONENTS  0.6260000D+00 0.3386500D+02 0.5094790D+01 0.1158790D+01 0.3258400D+00
EXPONENTS  0.1027410D+00 0.3600000D-01 0.7500000D+00 0.7500000D+00 0.7500000D+00
EXPONENTS  0.3386500D+02 0.5094790D+01 0.1158790D+01 0.3258400D+00 0.1027410D+00
EXPONENTS  0.3600000D-01 0.7500000D+00 0.7500000D+00 0.7500000D+00 0.3386500D+02
EXPONENTS  0.5094790D+01 0.1158790D+01 0.3258400D+00 0.1027410D+00 0.3600000D-01
EXPONENTS  0.7500000D+00 0.7500000D+00 0.7500000D+00 0.4397000D+06 0.6603000D+05
EXPONENTS  0.1514000D+05 0.4317000D+04 0.1414000D+04 0.5239000D+03 0.5239000D+03
EXPONENTS  0.2077000D+03 0.8654000D+02 0.3052000D+02 0.1298000D+02 0.4412000D+01
EXPONENTS  0.1862000D+01 0.3932000D+00 0.1400000D+00 0.3500000D-01 0.3500000D-01
EXPONENTS  0.3500000D-01 0.3500000D-01 0.2957000D+04 0.7003000D+03 0.2246000D+03
EXPONENTS  0.2957000D+04 0.7003000D+03 0.2246000D+03 0.2957000D+04 0.7003000D+03
EXPONENTS  0.2246000D+03 0.8259000D+02 0.3319000D+02 0.1420000D+02 0.8259000D+02
EXPONENTS  0.3319000D+02 0.1420000D+02 0.8259000D+02 0.3319000D+02 0.1420000D+02
EXPONENTS  0.1420000D+02 0.7438000D+01 0.3526000D+01 0.1420000D+02 0.7438000D+01
EXPONENTS  0.3526000D+01 0.1420000D+02 0.7438000D+01 0.3526000D+01 0.1595000D+01
EXPONENTS  0.1595000D+01 0.1595000D+01 0.8462000D+00 0.8462000D+00 0.8462000D+00
EXPONENTS  0.3186000D+00 0.3186000D+00 0.3186000D+00 0.1096000D+00 0.1096000D+00
EXPONENTS  0.1096000D+00 0.1348000D+03 0.3639000D+02 0.1216000D+02 0.4341000D+01
EXPONENTS  0.1348000D+03 0.3639000D+02 0.1216000D+02 0.4341000D+01 0.1348000D+03
EXPONENTS  0.3639000D+02 0.1216000D+02 0.4341000D+01 0.1348000D+03 0.3639000D+02
EXPONENTS  0.1216000D+02 0.4341000D+01 0.1348000D+03 0.3639000D+02 0.1216000D+02
EXPONENTS  0.4341000D+01 0.1348000D+03 0.3639000D+02 0.1216000D+02 0.4341000D+01
EXPONENTS  0.1535000D+01 0.1535000D+01 0.1535000D+01 0.1535000D+01 0.1535000D+01
EXPONENTS  0.1535000D+01 0.4510000D+00 0.4510000D+00 0.4510000D+00 0.4510000D+00
EXPONENTS  0.4510000D+00 0.4510000D+00 0.1058190D+06 0.1587200D+05 0.3619650D+04
EXPONENTS  0.1030800D+04 0.3399080D+03 0.1245380D+03 0.1245380D+03 0.4951350D+02
EXPONENTS  0.2080560D+02 0.6583460D+01 0.2564680D+01 0.5597630D+00 0.1832730D+00
EXPONENTS  0.4830000D-01 0.4830000D-01 0.4830000D-01 0.4830000D-01 0.5897760D+03
EXPONENTS  0.1398490D+03 0.4514130D+02 0.1687330D+02 0.2771520D+01 0.5897760D+03
EXPONENTS  0.1398490D+03 0.4514130D+02 0.1687330D+02 0.2771520D+01 0.5897760D+03
EXPONENTS  0.1398490D+03 0.4514130D+02 0.1687330D+02 0.2771520D+01 0.6741100D+01
EXPONENTS  0.2771520D+01 0.6741100D+01 0.2771520D+01 0.6741100D+01 0.2771520D+01
EXPONENTS  0.1023870D+01 0.1023870D+01 0.1023870D+01 0.3813680D+00 0.3813680D+00
EXPONENTS  0.3813680D+00 0.1094370D+00 0.1094370D+00 0.1094370D+00 0.7500000D+00
EXPONENTS  0.7500000D+00 0.7500000D+00 0.7500000D+00 0.7500000D+00 0.7500000D+00
MO    1     MO 0.0        OCC NO =    2.0000000  ORB. ENERGY = -482.629225
 -0.19528894D-06 -0.36354849D-06 -0.59803384D-06 -0.80305908D-06 -0.75611040D-06
 -0.62134625D-07  0.48914715D-06  0.12997556D-05 -0.17521613D-08 -0.23506505D-09
 -0.21996297D-09 -0.17036982D-09 -0.13748068D-07 -0.12864805D-07 -0.99642884D-08
  0.15204955D-05  0.14228092D-05  0.11020207D-05 -0.23222404D-05  0.53255235D-09
  0.75820061D-08 -0.85285402D-06  0.34689377D-05  0.12218781D-09  0.16301538D-07
 -0.17952772D-05  0.41473227D-05  0.23519174D-09  0.26845805D-07 -0.29573683D-05
 -0.10199773D-05 -0.10204721D-05  0.20404494D-05  0.13294000D-09  0.53620520D-10
 -0.55694486D-07 -0.11038489D-06 -0.19911860D-06 -0.29355330D-06  0.17447796D-06
 -0.19183035D-05 -0.84563541D-06  0.43895258D-06  0.68693592D-06  0.36718810D-06
 -0.11039737D-06 -0.19914110D-06 -0.29358647D-06  0.17467866D-06 -0.19183405D-05
 -0.84572100D-06  0.37837434D-06 -0.72878304D-06  0.35390120D-06 -0.11035240D-06
 -0.19905999D-06 -0.29346690D-06  0.17390647D-06 -0.19182373D-05 -0.84540647D-06
 -0.81651792D-06  0.31720465D-07  0.36249909D-06  0.38584360D+01  0.71955610D+01
  0.12109067D+02  0.19065834D+02  0.25289925D+02  0.16475088D+02  0.96359557D+01
  0.16238833D+02  0.34607836D+01  0.81725945D-01 -0.11313332D-01  0.24884909D-02
 -0.64479411D-03  0.72676458D-04 -0.23558699D-04 -0.22777691D-05 -0.73553696D-10
  0.22622060D-08 -0.24656137D-06  0.68197517D-07  0.91209315D-07  0.10535380D-06
 -0.91571801D-05 -0.12247075D-04 -0.14146317D-04  0.10043339D-02  0.13432250D-02
  0.15515285D-02  0.10057253D-07  0.47436678D-08  0.83834308D-09 -0.11263553D-05
 -0.53126390D-06 -0.93889673D-07  0.12349682D-03  0.58249294D-04  0.10294332D-04
 -0.54321422D-09 -0.11348003D-08 -0.72312169D-09  0.35936653D-07  0.75073376D-07
  0.47838536D-07 -0.39347224D-05 -0.82198221D-05 -0.52378657D-05  0.16923381D-08
 -0.99496090D-07  0.10889594D-04 -0.12486629D-08  0.76728427D-07 -0.83995180D-05
  0.47715254D-09 -0.37924585D-07  0.41555822D-05 -0.22726097D-09  0.29599882D-07
 -0.32474770D-05  0.35776478D-04  0.26668850D-04  0.12362241D-04  0.28905910D-05
  0.35769090D-04  0.26663343D-04  0.12359688D-04  0.28899941D-05 -0.71545567D-04
 -0.53332193D-04 -0.24721930D-04 -0.57805851D-05  0.25902579D-09  0.19308553D-09
  0.89504041D-10  0.20928209D-10 -0.26908941D-07 -0.20058725D-07 -0.92981434D-08
 -0.21741308D-08  0.19596075D-05  0.14607497D-05  0.67712480D-06  0.15832816D-06
 -0.37313708D-05 -0.37305898D-05  0.74619606D-05 -0.74352268D-12  0.23750991D-08
 -0.20427546D-06  0.98048213D-06  0.98027713D-06 -0.19607593D-05 -0.11291798D-11
 -0.59262754D-09  0.53668900D-07  0.17334625D-06  0.32370785D-06  0.55104070D-06
  0.85420542D-06  0.11502758D-05  0.87183719D-06 -0.63047994D-06 -0.14686491D-05
 -0.35823809D-06  0.23312101D-05 -0.21944336D-05  0.15518596D-05 -0.19269158D-05
  0.67456565D-05  0.29306354D-09  0.83967764D-08 -0.93147217D-06 -0.21397062D-08
 -0.27400313D-08 -0.29318041D-08 -0.23328746D-08 -0.53692359D-09 -0.66792186D-07
 -0.85531687D-07 -0.91517989D-07 -0.72822054D-07 -0.16760386D-07  0.74066251D-05
  0.94846595D-05  0.10148484D-04  0.80752807D-05  0.18585691D-05  0.18968637D-08
 -0.39416873D-09  0.58956996D-07 -0.12251278D-07 -0.65380111D-05  0.13586003D-05
  0.48226537D-09  0.15360899D-07 -0.17030988D-05 -0.25157719D-09 -0.88164665D-08
  0.97674995D-06  0.14124192D-09  0.84240929D-08 -0.93032236D-06 -0.47024679D-06
 -0.47006544D-06  0.94031223D-06  0.48483902D-12 -0.87616782D-09 -0.25429494D-07
MO    2     MO 0.0        OCC NO =    2.0000000  ORB. ENERGY = -101.306976
 -0.69848390D-06 -0.13002926D-05 -0.21389691D-05 -0.28722765D-05 -0.27043566D-05
 -0.22223499D-06  0.19352608D-05  0.51423504D-05 -0.69322476D-08  0.71050493D-10
  0.66485755D-10  0.51495787D-10 -0.57533030D-07 -0.53836741D-07 -0.41698637D-07
  0.63245628D-05  0.59182325D-05  0.45838998D-05 -0.13462677D-04  0.44346635D-08
  0.13988422D-06 -0.15495502D-04  0.26197057D-04 -0.20924080D-08 -0.20160376D-06
  0.22229950D-04 -0.22474283D-04  0.19157993D-08  0.11890663D-06 -0.13127129D-04
 -0.41632673D-05 -0.41643748D-05  0.83276421D-05  0.33063455D-09 -0.58789539D-08
 -0.22573775D-06  0.21169074D-05  0.38185989D-05  0.56296212D-05 -0.18562312D-04
  0.23097774D-05 -0.33658368D-05 -0.26558203D-05 -0.40627132D-05 -0.12709179D-04
  0.21167219D-05  0.38182643D-05  0.56291280D-05 -0.18561913D-04  0.23103654D-05
 -0.33666762D-05 -0.22877004D-05  0.45032804D-05 -0.12629888D-04  0.21177372D-05
  0.38200958D-05  0.56318281D-05 -0.18564097D-04  0.23072271D-05 -0.33624519D-05
  0.49543828D-05 -0.97452301D-07 -0.12679215D-04  0.87937001D-07  0.16399289D-06
  0.27597583D-06  0.43452639D-06  0.57637866D-06  0.37548110D-06 -0.30377652D-05
 -0.51193430D-05 -0.10910229D-05  0.18475847D-04 -0.26039620D-04  0.24602922D-04
 -0.16772920D-04  0.83101543D-05 -0.76170283D-05 -0.69211723D-05 -0.47387930D-09
  0.62929503D-08 -0.67842305D-06 -0.23313031D-08 -0.31179517D-08 -0.36014747D-08
  0.10862318D-06  0.14527575D-06  0.16780470D-06 -0.11869340D-04 -0.15874396D-04
 -0.18336152D-04  0.74674668D-08  0.35221529D-08  0.62246613D-09 -0.33401583D-06
 -0.15754403D-06 -0.27842579D-07  0.36489088D-04  0.17210675D-04  0.30416233D-05
 -0.92003154D-09 -0.19219896D-08 -0.12247374D-08  0.41580833D-07  0.86864336D-07
  0.55352016D-07 -0.45427444D-05 -0.94900089D-05 -0.60472588D-05  0.34321513D-08
 -0.16032669D-06  0.17519509D-04 -0.26776731D-08  0.13048808D-06 -0.14262546D-04
  0.99594248D-09 -0.50290946D-07  0.54979764D-05 -0.41621112D-09 -0.81296747D-08
  0.90615587D-06 -0.11971947D-03 -0.89242450D-04 -0.41367989D-04 -0.96728364D-05
 -0.11968569D-03 -0.89217270D-04 -0.41356317D-04 -0.96701071D-05  0.23940516D-03
  0.17845972D-03  0.82724306D-04  0.19342943D-04 -0.75788400D-09 -0.56494926D-09
 -0.26188002D-09 -0.61233883D-10 -0.74857018D-08 -0.55800647D-08 -0.25866172D-08
 -0.60481365D-09 -0.65315867D-05 -0.48688390D-05 -0.22569313D-05 -0.52772511D-06
  0.97679324D-05  0.97652043D-05 -0.19533137D-04  0.57600253D-10  0.48067207D-09
  0.53295010D-06 -0.29638444D-05 -0.29630484D-05  0.59268928D-05 -0.12581296D-10
 -0.20388204D-10 -0.16174710D-06  0.12702095D+01  0.23719970D+01  0.40377979D+01
  0.62592633D+01  0.84287444D+01  0.63884617D+01  0.23318206D+01  0.54317767D+01
  0.13249382D+01  0.43881644D-01 -0.56751258D-02  0.65838108D-03 -0.18690366D-03
  0.62787668D-04  0.21465397D-08  0.11210886D-06 -0.12386107D-04  0.62345760D-07
  0.79837752D-07  0.85425539D-07  0.67974213D-07  0.15644629D-07  0.20753296D-05
  0.26575929D-05  0.28435959D-05  0.22626863D-05  0.52076936D-06 -0.23018011D-03
 -0.29476043D-03 -0.31539050D-03 -0.25096032D-03 -0.57759863D-04 -0.97284704D-08
  0.20215785D-08 -0.43641682D-06  0.90687522D-07  0.48320638D-04 -0.10041040D-04
 -0.49620366D-08 -0.18620982D-06  0.20634165D-04  0.19566314D-08  0.88776245D-07
 -0.98188035D-05 -0.26505883D-08 -0.13247149D-06  0.14638902D-04  0.67668482D-05
  0.67652952D-05 -0.13532143D-04 -0.84151391D-10  0.80577921D-08  0.36723027D-06
MO    3     MO 0.0        OCC NO =    2.0000000  ORB. ENERGY =  -62.282221
 -0.19626093D-05 -0.36535795D-05 -0.60101039D-05 -0.80705608D-05 -0.75987372D-05
 -0.62443882D-06  0.58566603D-05  0.15562243D-04 -0.20978991D-07 -0.32753894D-08
 -0.30649574D-08 -0.23739280D-08 -0.19150478D-06 -0.17920129D-06 -0.13879833D-06
  0.21179739D-04  0.19819018D-04  0.15350595D-04 -0.32018233D-04  0.73552686D-08
  0.10632921D-06 -0.11956630D-04  0.48489106D-04  0.17147439D-08  0.22759580D-06
 -0.25065303D-04  0.59376651D-04  0.33373671D-08  0.38084373D-06 -0.41954201D-04
 -0.14082679D-04 -0.14089551D-04  0.28172230D-04  0.18444566D-08  0.81766925D-09
 -0.76898667D-06 -0.15870235D-05 -0.28627640D-05 -0.42204687D-05  0.26358294D-05
 -0.27327410D-04 -0.12122367D-04  0.60864501D-05  0.95264625D-05  0.49233915D-05
 -0.15871964D-05 -0.28630759D-05 -0.42209286D-05  0.26386231D-05 -0.27327915D-04
 -0.12123594D-04  0.52464858D-05 -0.10103659D-04  0.47391075D-05 -0.15865745D-05
 -0.28619541D-05 -0.42192747D-05  0.26278890D-05 -0.27326523D-04 -0.12119089D-04
 -0.11321698D-04  0.44135652D-06  0.48585158D-05 -0.12742143D+01 -0.23762702D+01
 -0.39989121D+01 -0.62963226D+01 -0.83517735D+01 -0.54407516D+01 -0.53840042D+01
 -0.90733028D+01 -0.19336819D+01  0.58199662D+01  0.24291086D+01  0.10318451D+00
 -0.10992000D-01  0.10516189D-02 -0.33690840D-03 -0.32139203D-04 -0.10486466D-08
  0.32286960D-07 -0.35190070D-05  0.13881755D-05  0.18565858D-05  0.21444998D-05
 -0.22542283D-03 -0.30148696D-03 -0.34824069D-03  0.24731779D-01  0.33076990D-01
  0.38206475D-01  0.19627210D-05  0.92574948D-06  0.16360667D-06 -0.31399332D-03
 -0.14810009D-03 -0.26173562D-04  0.34448347D-01  0.16248126D-01  0.28715131D-02
 -0.80679432D-09 -0.16854317D-08 -0.10739971D-08 -0.50051438D-06 -0.10455983D-05
 -0.66628007D-06  0.55010921D-04  0.11492043D-03  0.73230024D-04  0.19119814D-07
 -0.68910738D-06  0.75246101D-04 -0.15842268D-07  0.84422337D-06 -0.92373023D-04
  0.64924364D-08 -0.50961293D-06  0.55840769D-04 -0.31829355D-08  0.41507161D-06
 -0.45538956D-04 -0.16093615D-02 -0.11996659D-02 -0.55610046D-03 -0.13002974D-03
 -0.16090075D-02 -0.11994020D-02 -0.55597813D-03 -0.13000113D-03  0.32183691D-02
  0.23990680D-02  0.11120786D-02  0.26003087D-03  0.56433275D-07  0.42067041D-07
  0.19500012D-07  0.45595745D-08  0.26961010D-06  0.20097539D-06  0.93161355D-07
  0.21783378D-07 -0.87917255D-04 -0.65536136D-04 -0.30379020D-04 -0.71033495D-05
 -0.34176735D-04 -0.34169165D-04  0.68345900D-04 -0.77007639D-09  0.27611838D-07
 -0.18724737D-05  0.12658313D-04  0.12655631D-04 -0.25313944D-04  0.24125893D-10
 -0.79839685D-08  0.69296465D-06  0.51891876D-06  0.96903209D-06  0.16495618D-05
  0.25570973D-05  0.34433955D-05  0.26098787D-05 -0.53232066D-05 -0.12399955D-04
 -0.30246408D-05  0.28046556D-04 -0.28585654D-04  0.21632176D-04 -0.27374517D-04
  0.95688859D-04  0.41604369D-08  0.11924907D-06 -0.13228501D-04 -0.24417966D-07
 -0.31268775D-07 -0.33457254D-07 -0.26622372D-07 -0.61272815D-08 -0.76759702D-06
 -0.98295731D-06 -0.10517538D-05 -0.83689417D-06 -0.19261568D-06  0.85116464D-04
  0.10899710D-03  0.11662573D-03  0.92800611D-04  0.21358558D-04  0.19908900D-07
 -0.41370743D-08  0.62371047D-06 -0.12960719D-06 -0.69163254D-04  0.14372141D-04
  0.61328703D-08  0.19712145D-06 -0.21854096D-04 -0.34402627D-08 -0.12183971D-06
  0.13497310D-04  0.19697114D-08  0.11854861D-06 -0.13091560D-04 -0.65350448D-05
 -0.65325207D-05  0.13067565D-04  0.62663009D-11 -0.12153302D-07 -0.35340037D-06
MO    4     MO 0.0        OCC NO =    2.0000000  ORB. ENERGY =  -56.101245
 -0.14495335D-05 -0.26984411D-05 -0.44389103D-05 -0.59607115D-05 -0.56122346D-05
 -0.46119468D-06  0.34905438D-05  0.92750284D-05 -0.12503386D-07  0.97816386D-08
  0.91532037D-08  0.70895101D-08 -0.94800290D-06 -0.88709714D-06 -0.68709102D-06
  0.10386525D-03  0.97192283D-04  0.75279180D-04 -0.41533346D-04 -0.84288792D-08
  0.67308272D-07 -0.70860300D-05  0.65177491D-04 -0.82834092D-09  0.26209004D-06
 -0.28760170D-04 -0.22945595D-05 -0.18686463D-08 -0.38409907D-06  0.42278017D-04
 -0.25149047D-04 -0.25130989D-04  0.50280036D-04 -0.20275198D-08  0.92310564D-08
 -0.13749994D-05  0.96880747D-05  0.17475905D-04  0.25764090D-04 -0.51374019D-04
 -0.25805902D-05 -0.98423881D-05 -0.11672500D-04 -0.18983312D-04  0.68833750D-04
  0.96874824D-05  0.17474836D-04  0.25762515D-04 -0.51377914D-04 -0.25793982D-05
 -0.98426458D-05 -0.10060270D-04  0.18662729D-04  0.69177993D-04  0.96897201D-05
  0.17478873D-04  0.25768466D-04 -0.51364704D-04 -0.25845496D-05 -0.98415776D-05
  0.21725064D-04 -0.15598025D-05  0.68986564D-04  0.39105512D-03  0.72927501D-03
  0.12272622D-02  0.19323353D-02  0.25631511D-02  0.16697614D-02  0.16757827D-02
  0.28240848D-02  0.60186259D-03 -0.19015323D-02 -0.66334482D-03 -0.98723828D-04
  0.54092503D-04 -0.15535176D-04  0.10123828D-04  0.76320431D-04  0.19600407D-09
 -0.30762787D-07  0.33779905D-05  0.45535940D-02  0.60901072D-02  0.70345436D-02
 -0.79914296D+00 -0.10687967D+01 -0.12345427D+01  0.87707529D+02  0.11730256D+03
  0.13549351D+03  0.58551893D-02  0.27616958D-02  0.48807140D-03 -0.10275653D+01
 -0.48466796D+00 -0.85654824D-01  0.11277733D+03  0.53193272D+02  0.94007872D+01
  0.52023299D-05  0.10867914D-04  0.69252930D-05 -0.91342731D-03 -0.19081931D-02
 -0.12159459D-02  0.10025056D+00  0.20942819D+00  0.13345261D+00 -0.19487126D-05
  0.34353961D-03 -0.37704517D-01  0.54542006D-06 -0.96890138D-04  0.10634162D-01
 -0.55899570D-07  0.10152324D-04 -0.11143220D-02  0.63908935D-08 -0.10827570D-05
  0.11883313D-03 -0.12269224D-02 -0.91458440D-03 -0.42395203D-03 -0.99130237D-04
 -0.12265998D-02 -0.91434399D-03 -0.42384059D-03 -0.99104180D-04  0.24535222D-02
  0.18289284D-02  0.84779261D-03  0.19823442D-03 -0.78178168D-08 -0.58276331D-08
 -0.27013765D-08 -0.63164717D-09  0.65775631D-06  0.49031111D-06  0.22728180D-06
  0.53143981D-07 -0.67156572D-04 -0.50060505D-04 -0.23205352D-04 -0.54259724D-05
 -0.31796733D-04 -0.31790133D-04  0.63586867D-04  0.37028576D-09 -0.10271422D-07
 -0.17322442D-05  0.12345694D-04  0.12342958D-04 -0.24688652D-04 -0.97957752D-10
  0.16674727D-08  0.67327122D-06 -0.23611897D-06 -0.44093002D-06 -0.75058539D-06
 -0.11635331D-05 -0.15668175D-05 -0.11875498D-05  0.26251322D-05  0.61150212D-05
  0.14915976D-05 -0.14240971D-04  0.14846016D-04 -0.12142343D-04  0.11816469D-04
 -0.69778898D-04 -0.39659268D-08 -0.90736009D-07  0.10088530D-04  0.10196184D-07
  0.13056868D-07  0.13970709D-07  0.11116675D-07  0.25585623D-08  0.33182200D-06
  0.42491939D-06  0.45465919D-06  0.36177824D-06  0.83265198D-07 -0.36745172D-04
 -0.47054554D-04 -0.50347869D-04 -0.40062454D-04 -0.92205883D-05 -0.80164291D-08
  0.16658159D-08 -0.26164193D-06  0.54369258D-07  0.28972843D-04 -0.60205638D-05
 -0.27954546D-08 -0.88857470D-07  0.98413845D-05  0.15750689D-08  0.47144768D-07
 -0.52223703D-05 -0.16670007D-09 -0.18067500D-07  0.19867508D-05 -0.24532505D-05
 -0.24523083D-05  0.49055588D-05 -0.38337807D-10  0.11967275D-08 -0.13403363D-06
MO    5     MO 0.0        OCC NO =    2.0000000  ORB. ENERGY =  -56.099325
  0.27649506D-09  0.51472122D-09  0.84671157D-09  0.11369915D-08  0.10705204D-08
  0.87971787D-10 -0.85230498D-09 -0.22647339D-08  0.30530195D-11 -0.13041248D-04
 -0.12203395D-04 -0.94520013D-05 -0.47072424D-05 -0.44048191D-05 -0.34117027D-05
 -0.48484959D-07 -0.45369975D-07 -0.35140800D-07  0.34228080D-08  0.18786537D-04
  0.67813017D-05  0.64140584D-07 -0.37399747D-08  0.10328355D-04  0.37300114D-05
  0.35711452D-07  0.15870211D-07 -0.48786498D-05 -0.17616669D-05 -0.86826729D-08
  0.16581687D-04 -0.16539670D-04 -0.42016839D-07 -0.16950106D-04 -0.11786552D-04
 -0.45023864D-05  0.90817264D-06  0.16382139D-05  0.24151591D-05  0.15084115D-04
  0.11118834D-04 -0.23622242D-04  0.66955963D-05  0.22713311D-04 -0.24098792D-04
  0.15331500D-06  0.27655839D-06  0.40771996D-06  0.25531889D-05  0.18777342D-05
 -0.39968008D-05 -0.74621196D-05 -0.81608977D-05 -0.41869686D-05 -0.10617537D-05
 -0.19152522D-05 -0.28235866D-05 -0.17630918D-04 -0.13001540D-04  0.27607350D-04
  0.26197341D-04 -0.53710761D-05  0.28362733D-04  0.10521220D-08  0.19620924D-08
  0.33019119D-08  0.51988895D-08  0.68960806D-08  0.44924424D-08  0.63243033D-08
  0.10657926D-07  0.22713933D-08 -0.13717201D-07  0.92766882D-08 -0.11787922D-07
  0.87816284D-08 -0.62090383D-08  0.61029976D-08  0.11257664D-07 -0.78683921D-05
 -0.28411329D-05 -0.24026361D-07  0.82500705D+02  0.11033881D+03  0.12744984D+03
  0.29788001D+02  0.39839327D+02  0.46017496D+02  0.26712868D+00  0.35726555D+00
  0.41266928D+00  0.10608063D+03  0.50034665D+02  0.88425702D+01  0.38301854D+02
  0.18065696D+02  0.31927302D+01  0.34347804D+00  0.16200704D+00  0.28631322D-01
  0.94098761D-01  0.19657678D+00  0.12526339D+00  0.33975636D-01  0.70976719D-01
  0.45228050D-01  0.30468005D-03  0.63649110D-03  0.40558723D-03 -0.35018937D-01
 -0.12644063D-01 -0.11338128D-03  0.96969531D-02  0.35012172D-02  0.31393475D-04
 -0.95841607D-03 -0.34604955D-03 -0.31030295D-05  0.96661887D-04  0.34901259D-04
  0.31513177D-06 -0.24871662D-05 -0.18540076D-05 -0.85941800D-06 -0.20095271D-06
 -0.15939599D-04 -0.11881851D-04 -0.55077855D-05 -0.12878535D-05  0.18426765D-04
  0.13735858D-04  0.63672035D-05  0.14888062D-05 -0.48683405D-04 -0.36290057D-04
 -0.16822114D-04 -0.39334172D-05  0.56616160D-02  0.42203369D-02  0.19563207D-02
  0.45743509D-03  0.20440710D-02  0.15237113D-02  0.70631043D-03  0.16515246D-03
  0.57835093D-06 -0.41933616D-06 -0.15901477D-06 -0.16791230D-06 -0.46551878D-04
 -0.16814797D-04 -0.16860119D-06  0.16199576D-06  0.66054287D-08  0.15938238D-06
  0.14160899D-05  0.51363135D-06 -0.31533751D-10 -0.58886322D-10 -0.10024088D-09
 -0.15539016D-09 -0.20924890D-09 -0.15859759D-09  0.35019088D-09  0.81573972D-09
  0.19897812D-09 -0.19134203D-08  0.20287650D-08 -0.19278766D-08  0.32771409D-08
 -0.18060778D-07 -0.77652545D-06 -0.28069516D-06  0.35153252D-09 -0.39846458D-04
 -0.51025950D-04 -0.54597220D-04 -0.43443718D-04 -0.99988044D-05 -0.14392237D-04
 -0.18430185D-04 -0.19720100D-04 -0.15691540D-04 -0.36114920D-05 -0.16269550D-06
 -0.20834204D-06 -0.22292375D-06 -0.17738333D-06 -0.40825723D-07  0.31953770D-04
 -0.66400013D-05  0.11541473D-04 -0.23983208D-05  0.13032931D-06 -0.27082463D-07
  0.10125830D-04  0.36573688D-05  0.41579012D-07 -0.52492509D-05 -0.18960237D-05
 -0.21976839D-07  0.22172539D-05  0.80099687D-06  0.10190333D-07 -0.14392843D-06
  0.15446373D-06 -0.10535309D-07  0.17257357D-06 -0.25707379D-05 -0.92613022D-06
MO    6     MO 0.0        OCC NO =    2.0000000  ORB. ENERGY =  -56.099325
 -0.21287510D-09 -0.39628676D-09 -0.65188799D-09 -0.87537617D-09 -0.82419966D-09
 -0.67729973D-10  0.65922617D-09  0.17516874D-08 -0.23613970D-11  0.47083891D-05
  0.44058921D-05  0.34125338D-05 -0.13035357D-04 -0.12197883D-04 -0.94477315D-05
 -0.11445098D-06 -0.10709792D-06 -0.82951476D-07 -0.27034869D-08 -0.67825580D-05
  0.18778416D-04  0.16903183D-06  0.31178864D-08 -0.37294866D-05  0.10330666D-04
  0.92623167D-07 -0.10433584D-07  0.17615518D-05 -0.48786129D-05 -0.49359838D-07
 -0.85291859D-05  0.86326012D-05 -0.10341530D-06 -0.33195242D-04  0.38987478D-05
 -0.11480464D-04  0.70232294D-06  0.12668904D-05  0.18677304D-05  0.11649804D-04
  0.85958832D-05 -0.18248440D-04  0.16369418D-04  0.10425353D-04 -0.18679890D-04
 -0.11379364D-05 -0.20526748D-05 -0.30261838D-05 -0.18887676D-04 -0.13928787D-04
  0.29583523D-04 -0.14316792D-04  0.24134681D-04  0.30655824D-04  0.43581934D-06
  0.78615591D-06  0.11590010D-05  0.72329747D-05  0.53356126D-05 -0.11327153D-04
 -0.11234561D-04 -0.91342905D-05 -0.11739734D-04 -0.17058446D-08 -0.31812135D-08
 -0.53535129D-08 -0.84291535D-08 -0.11180873D-07 -0.72837644D-08 -0.84804717D-08
 -0.14291573D-07 -0.30457879D-08  0.13806919D-07 -0.42013505D-08  0.78437553D-08
 -0.58161294D-08  0.42352552D-08 -0.42401612D-08 -0.77795462D-08  0.28411418D-05
 -0.78685191D-05 -0.72846059D-07 -0.29789198D+02 -0.39840928D+02 -0.46019346D+02
  0.82497267D+02  0.11033421D+03  0.12744452D+03  0.75321650D+00  0.10073733D+01
  0.11635939D+01 -0.38303394D+02 -0.18066422D+02 -0.31928585D+01  0.10607621D+03
  0.50032580D+02  0.88422017D+01  0.96849695D+00  0.45680743D+00  0.80731064D-01
 -0.33977003D-01 -0.70979575D-01 -0.45229869D-01  0.94094841D-01  0.19656860D+00
  0.12525817D+00  0.85910630D-03  0.17947139D-02  0.11436343D-02  0.12644575D-01
 -0.35017489D-01 -0.31972221D-03 -0.35013600D-02  0.96965572D-02  0.88535332D-04
  0.34606356D-03 -0.95837863D-03 -0.87506350D-05 -0.34902586D-04  0.96658662D-04
  0.88104491D-06  0.13368085D-05  0.99649680D-06  0.46192220D-06  0.10800858D-06
 -0.52962077D-04 -0.39479507D-04 -0.18300571D-04 -0.42791162D-05  0.51625269D-04
  0.38483010D-04  0.17838649D-04  0.41711076D-05  0.24358604D-04  0.18157628D-04
  0.84168974D-05  0.19680742D-05 -0.20442241D-02 -0.15238254D-02 -0.70636331D-03
 -0.16516482D-03  0.56608510D-02  0.42197667D-02  0.19560563D-02  0.45737328D-03
 -0.29814399D-06  0.71709179D-06 -0.41894781D-06 -0.13014985D-05  0.16796628D-04
 -0.46534954D-04  0.86887446D-07 -0.98303816D-07  0.11416370D-07  0.33897510D-06
 -0.50777869D-06  0.14128526D-05  0.22401918D-10  0.41833480D-10  0.71212206D-10
  0.11039085D-09  0.14865268D-09  0.11266945D-09 -0.24878171D-09 -0.57951574D-09
 -0.14135753D-09  0.13596152D-08 -0.14420119D-08  0.13663413D-08 -0.22909868D-08
  0.12291372D-07  0.28044604D-06 -0.77745512D-06 -0.90441673D-08  0.14388724D-04
  0.18425686D-04  0.19715286D-04  0.15687710D-04  0.36106104D-05 -0.39862950D-04
 -0.51047070D-04 -0.54619817D-04 -0.43461699D-04 -0.10002943D-04 -0.34055480D-06
 -0.43610230D-06 -0.46662479D-06 -0.37129941D-06 -0.85456549D-07 -0.11538644D-04
  0.23977330D-05  0.31967038D-04 -0.66427583D-05  0.27319586D-06 -0.56770166D-07
 -0.36564792D-05  0.10130016D-04  0.86382404D-07  0.18955346D-05 -0.52515575D-05
 -0.44500775D-07 -0.80069144D-06  0.22186874D-05  0.18193917D-07  0.73862450D-07
 -0.51890740D-07 -0.21971710D-07  0.28159386D-06  0.93141928D-06 -0.25739120D-05
MO    7     MO 0.0        OCC NO =    2.0000000  ORB. ENERGY =  -10.090000
  0.43812629D+00  0.81561277D+00  0.13416753D+01  0.18016448D+01  0.16963165D+01
  0.13939762D+00  0.37095233D+00  0.98568981D+00 -0.13287787D-02  0.34689965D-06
  0.32461260D-06  0.25142501D-06  0.59729811D-05  0.55892386D-05  0.43290814D-05
 -0.66658079D-03 -0.62375539D-03 -0.48312266D-03  0.78434879D-02 -0.13593027D-06
 -0.31850858D-05  0.35362654D-03 -0.13481607D-02  0.14436902D-07 -0.12873726D-06
  0.13707232D-04 -0.67945487D-03  0.15339347D-08  0.25188504D-06 -0.27795728D-04
  0.84151895D-03  0.84156048D-03 -0.16830794D-02 -0.73935818D-08  0.25698785D-06
  0.45847342D-04  0.39120367D-04  0.70567561D-04  0.10403519D-03 -0.12267855D-02
  0.67108634D-03  0.36306736D-04 -0.12636374D-02 -0.19880076D-02  0.11360242D-03
  0.39117352D-04  0.70562122D-04  0.10402717D-03 -0.12267952D-02  0.67109048D-03
  0.36302451D-04 -0.10889082D-02  0.20865230D-02  0.15060381D-03  0.39139827D-04
  0.70602664D-04  0.10408694D-03 -0.12267147D-02  0.67106667D-03  0.36330240D-04
  0.23523497D-02 -0.10207106D-03  0.13090586D-03 -0.14699315D-06 -0.27412614D-06
 -0.46131384D-06 -0.72634274D-06 -0.96345922D-06 -0.62764421D-06  0.95895596D-05
  0.16160645D-04  0.34441202D-05 -0.77222437D-04  0.13574075D-03 -0.17784979D-03
  0.16001135D-03 -0.16426637D-03  0.16631067D-03  0.47778776D-04 -0.12011756D-08
 -0.38616775D-07  0.42770923D-05 -0.81776290D-08 -0.10936995D-07 -0.12633074D-07
 -0.32423342D-05 -0.43363907D-05 -0.50088658D-05  0.35679876D-03  0.47719289D-03
  0.55119460D-03 -0.44511632D-07 -0.20994639D-07 -0.37103590D-08 -0.70067123D-05
 -0.33048304D-05 -0.58405897D-06  0.77201305D-03  0.36413258D-03  0.64352743D-04
  0.68661349D-08  0.14343682D-07  0.91401346D-08  0.75914595D-06  0.15858920D-05
  0.10105680D-05 -0.83718083D-04 -0.17489105D-03 -0.11144473D-03 -0.29749083D-07
 -0.24368089D-05  0.26901283D-03  0.21141895D-07  0.20809516D-05 -0.22958029D-03
 -0.46863065D-08 -0.52570384D-06  0.57987939D-04  0.34546938D-08 -0.46636806D-06
  0.51144144D-04 -0.17067170D-02 -0.12722376D-02 -0.58974077D-03 -0.13789566D-03
 -0.17063381D-02 -0.12719551D-02 -0.58960983D-03 -0.13786504D-03  0.34130551D-02
  0.25441927D-02  0.11793506D-02  0.27576069D-03  0.18268333D-08  0.13617759D-08
  0.63124588D-09  0.14760055D-09 -0.69415806D-07 -0.51744605D-07 -0.23986010D-07
 -0.56085092D-08 -0.93136932D-04 -0.69427038D-04 -0.32182632D-04 -0.75250777D-05
  0.17175981D-03  0.17172210D-03 -0.34348191D-03 -0.30725325D-09  0.45014208D-08
  0.93737526D-05 -0.55248917D-04 -0.55237702D-04  0.11048662D-03  0.26380468D-09
  0.15394190D-08 -0.30161103D-05 -0.85688125D-06 -0.16001453D-05 -0.27238919D-05
 -0.42224889D-05 -0.56860174D-05 -0.43096459D-05  0.85899197D-05  0.20009484D-04
  0.48807840D-05 -0.75465263D-04  0.96493999D-04 -0.81375944D-04  0.44108534D-04
  0.15437647D-03  0.37836957D-08  0.12826178D-06 -0.14199253D-04 -0.11403824D-06
 -0.14603330D-06 -0.15625406D-06 -0.12433339D-06 -0.28615996D-07  0.75994019D-06
  0.97315226D-06  0.10412625D-05  0.82854610D-06  0.19069432D-06 -0.80863032D-04
 -0.10355031D-03 -0.11079772D-03 -0.88163187D-04 -0.20291230D-04  0.52116313D-07
 -0.10829783D-07 -0.11482311D-05  0.23860270D-06  0.12508368D-03 -0.25992419D-04
  0.32362887D-07 -0.17710130D-06  0.18712520D-04 -0.16359309D-07 -0.19642022D-06
  0.21992363D-04  0.13728242D-07  0.37107968D-06 -0.41153103D-04 -0.36194214D-04