 Single Point Energy
GAUSSIAN             31 MOL ORBITALS    210 PRIMITIVES        6 NUCLEI   B3LYP
  C    1    (CENTRE  1)  -2.53335851  0.02422072  0.24705900  CHARGE =  6.0
  H    2    (CENTRE  2)  -1.76284695 -1.01363425  1.83210038  CHARGE =  1.0
  H    3    (CENTRE  3)  -2.08864187 -0.89640829 -1.52433928  CHARGE =  1.0
  H    4    (CENTRE  4)  -1.88894397  1.96532735  0.25228974  CHARGE =  1.0
  Br   5    (CENTRE  5)   3.52444670 -0.03334766 -0.34353122  CHARGE = 35.0
  Cl   6    (CENTRE  6)  -6.02441474  0.05685641  0.58712870  CHARGE = 17.0
CENTRE ASSIGNMENTS    1  1  1  1  1  1  1  1  1  1  1  1  1  1  1  1  1  1  1  1
CENTRE ASSIGNMENTS    1  1  1  1  1  1  1  1  1  1  1  1  1  1  1  1  2  2  2  2
CENTRE ASSIGNMENTS    2  2  2  2  2  3  3  3  3  3  3  3  3  3  4  4  4  4  4  4
CENTRE ASSIGNMENTS    4  4  4  5  5  5  5  5  5  5  5  5  5  5  5  5  5  5  5  5
CENTRE ASSIGNMENTS    5  5  5  5  5  5  5  5  5  5  5  5  5  5  5  5  5  5  5  5
CENTRE ASSIGNMENTS    5  5  5  5  5  5  5  5  5  5  5  5  5  5  5  5  5  5  5  5
CENTRE ASSIGNMENTS    5  5  5  5  5  5  5  5  5  5  5  5  5  5  5  5  5  5  5  5
CENTRE ASSIGNMENTS    5  5  5  5  5  5  5  5  5  5  5  5  5  5  5  5  5  6  6  6
CENTRE ASSIGNMENTS    6  6  6  6  6  6  6  6  6  6  6  6  6  6  6  6  6  6  6  6
CENTRE ASSIGNMENTS    6  6  6  6  6  6  6  6  6  6  6  6  6  6  6  6  6  6  6  6
CENTRE ASSIGNMENTS    6  6  6  6  6  6  6  6  6  6
TYPE ASSIGNMENTS      1  1  1  1  1  1  1  1  1  2  2  2  3  3  3  4  4  4  1  2
TYPE ASSIGNMENTS      3  4  1  2  3  4  1  2  3  4  5  6  7  8  9 10  1  1  1  1
TYPE ASSIGNMENTS      1  1  2  3  4  1  1  1  1  1  1  2  3  4  1  1  1  1  1  1
TYPE ASSIGNMENTS      2  3  4  1  1  1  1  1  1  1  1  1  1  1  1  1  1  1  1  2
TYPE ASSIGNMENTS      3  4  2  2  2  3  3  3  4  4  4  2  2  2  3  3  3  4  4  4
TYPE ASSIGNMENTS      2  2  2  3  3  3  4  4  4  2  3  4  2  3  4  2  3  4  2  3
TYPE ASSIGNMENTS      4  5  5  5  5  6  6  6  6  7  7  7  7  8  8  8  8  9  9  9
TYPE ASSIGNMENTS      9 10 10 10 10  5  6  7  8  9 10  5  6  7  8  9 10  1  1  1
TYPE ASSIGNMENTS      1  1  1  1  1  1  1  1  1  1  1  2  3  4  2  2  2  2  2  3
TYPE ASSIGNMENTS      3  3  3  3  4  4  4  4  4  2  2  3  3  4  4  2  3  4  2  3
TYPE ASSIGNMENTS      4  2  3  4  5  6  7  8  9 10
EXPONENTS  0.4563240D+04 0.6820240D+03 0.1549730D+03 0.4445530D+02 0.1302900D+02
EXPONENTS  0.1827730D+01 0.2096420D+02 0.4803310D+01 0.1459330D+01 0.2096420D+02
EXPONENTS  0.4803310D+01 0.1459330D+01 0.2096420D+02 0.4803310D+01 0.1459330D+01
EXPONENTS  0.2096420D+02 0.4803310D+01 0.1459330D+01 0.4834560D+00 0.4834560D+00
EXPONENTS  0.4834560D+00 0.4834560D+00 0.1455850D+00 0.1455850D+00 0.1455850D+00
EXPONENTS  0.1455850D+00 0.4380000D-01 0.4380000D-01 0.4380000D-01 0.4380000D-01
EXPONENTS  0.6260000D+00 0.6260000D+00 0.6260000D+00 0.6260000D+00 0.6260000D+00
EXPONENTS  0.6260000D+00 0.3386500D+02 0.5094790D+01 0.1158790D+01 0.3258400D+00
EXPONENTS  0.1027410D+00 0.3600000D-01 0.7500000D+00 0.7500000D+00 0.7500000D+00
EXPONENTS  0.3386500D+02 0.5094790D+01 0.1158790D+01 0.3258400D+00 0.1027410D+00
EXPONENTS  0.3600000D-01 0.7500000D+00 0.7500000D+00 0.7500000D+00 0.3386500D+02
EXPONENTS  0.5094790D+01 0.1158790D+01 0.3258400D+00 0.1027410D+00 0.3600000D-01
EXPONENTS  0.7500000D+00 0.7500000D+00 0.7500000D+00 0.4397000D+06 0.6603000D+05
EXPONENTS  0.1514000D+05 0.4317000D+04 0.1414000D+04 0.5239000D+03 0.5239000D+03
EXPONENTS  0.2077000D+03 0.8654000D+02 0.3052000D+02 0.1298000D+02 0.4412000D+01
EXPONENTS  0.1862000D+01 0.3932000D+00 0.1400000D+00 0.3500000D-01 0.3500000D-01
EXPONENTS  0.3500000D-01 0.3500000D-01 0.2957000D+04 0.7003000D+03 0.2246000D+03
EXPONENTS  0.2957000D+04 0.7003000D+03 0.2246000D+03 0.2957000D+04 0.7003000D+03
EXPONENTS  0.2246000D+03 0.8259000D+02 0.3319000D+02 0.1420000D+02 0.8259000D+02
EXPONENTS  0.3319000D+02 0.1420000D+02 0.8259000D+02 0.3319000D+02 0.1420000D+02
EXPONENTS  0.1420000D+02 0.7438000D+01 0.3526000D+01 0.1420000D+02 0.7438000D+01
EXPONENTS  0.3526000D+01 0.1420000D+02 0.7438000D+01 0.3526000D+01 0.1595000D+01
EXPONENTS  0.1595000D+01 0.1595000D+01 0.8462000D+00 0.8462000D+00 0.8462000D+00
EXPONENTS  0.3186000D+00 0.3186000D+00 0.3186000D+00 0.1096000D+00 0.1096000D+00
EXPONENTS  0.1096000D+00 0.1348000D+03 0.3639000D+02 0.1216000D+02 0.4341000D+01
EXPONENTS  0.1348000D+03 0.3639000D+02 0.1216000D+02 0.4341000D+01 0.1348000D+03
EXPONENTS  0.3639000D+02 0.1216000D+02 0.4341000D+01 0.1348000D+03 0.3639000D+02
EXPONENTS  0.1216000D+02 0.4341000D+01 0.1348000D+03 0.3639000D+02 0.1216000D+02
EXPONENTS  0.4341000D+01 0.1348000D+03 0.3639000D+02 0.1216000D+02 0.4341000D+01
EXPONENTS  0.1535000D+01 0.1535000D+01 0.1535000D+01 0.1535000D+01 0.1535000D+01
EXPONENTS  0.1535000D+01 0.4510000D+00 0.4510000D+00 0.4510000D+00 0.4510000D+00
EXPONENTS  0.4510000D+00 0.4510000D+00 0.1058190D+06 0.1587200D+05 0.3619650D+04
EXPONENTS  0.1030800D+04 0.3399080D+03 0.1245380D+03 0.1245380D+03 0.4951350D+02
EXPONENTS  0.2080560D+02 0.6583460D+01 0.2564680D+01 0.5597630D+00 0.1832730D+00
EXPONENTS  0.4830000D-01 0.4830000D-01 0.4830000D-01 0.4830000D-01 0.5897760D+03
EXPONENTS  0.1398490D+03 0.4514130D+02 0.1687330D+02 0.2771520D+01 0.5897760D+03
EXPONENTS  0.1398490D+03 0.4514130D+02 0.1687330D+02 0.2771520D+01 0.5897760D+03
EXPONENTS  0.1398490D+03 0.4514130D+02 0.1687330D+02 0.2771520D+01 0.6741100D+01
EXPONENTS  0.2771520D+01 0.6741100D+01 0.2771520D+01 0.6741100D+01 0.2771520D+01
EXPONENTS  0.1023870D+01 0.1023870D+01 0.1023870D+01 0.3813680D+00 0.3813680D+00
EXPONENTS  0.3813680D+00 0.1094370D+00 0.1094370D+00 0.1094370D+00 0.7500000D+00
EXPONENTS  0.7500000D+00 0.7500000D+00 0.7500000D+00 0.7500000D+00 0.7500000D+00
MO    1     MO 0.0        OCC NO =    2.0000000  ORB. ENERGY = -482.554364
  0.68603191D-08  0.12771121D-07  0.21008374D-07  0.28210720D-07  0.26561456D-07
  0.21827317D-08 -0.33267843D-08 -0.88398889D-08  0.11916788D-10  0.31570351D-05
  0.29542070D-05  0.22881475D-05 -0.29723778D-07 -0.27814133D-07 -0.21543121D-07
 -0.30764130D-06 -0.28787646D-06 -0.22297145D-06 -0.32271277D-06 -0.26529617D-05
  0.25447118D-07  0.25878666D-06  0.19473604D-05  0.29410990D-05 -0.27275342D-07
 -0.28635446D-06  0.44496736D-05  0.75997258D-06 -0.71572089D-08 -0.74051483D-07
 -0.30163074D-06  0.15320126D-06  0.14842948D-06  0.89661242D-08  0.88818372D-07
 -0.10730173D-08  0.19216936D-06  0.34664612D-06  0.51104775D-06 -0.18624943D-05
 -0.19377954D-05 -0.17211960D-05 -0.12512328D-05 -0.63541753D-06  0.11635122D-05
  0.19210645D-06  0.34653262D-06  0.51088043D-06 -0.18622098D-05 -0.19372298D-05
 -0.17216072D-05 -0.14549490D-05 -0.56121655D-06 -0.94172643D-06  0.19224773D-06
  0.34678748D-06  0.51125616D-06 -0.18628151D-05 -0.19384521D-05 -0.17206609D-05
 -0.13311222D-05  0.12356836D-05  0.17221207D-06  0.38584360D+01  0.71955610D+01
  0.12109067D+02  0.19065834D+02  0.25289925D+02  0.16475088D+02  0.96359572D+01
  0.16238835D+02  0.34607841D+01  0.81716832D-01 -0.11301066D-01  0.24775974D-02
 -0.63744991D-03  0.67949550D-04 -0.19079440D-04  0.22151461D-05 -0.33997057D-06
  0.31898130D-08  0.33122775D-07 -0.12524895D-03 -0.16751153D-03 -0.19348874D-03
  0.11901722D-05  0.15917704D-05  0.18386176D-05  0.12215585D-04  0.16337474D-04
  0.18871042D-04 -0.34167251D-04 -0.16115543D-04 -0.28480818D-05  0.32885552D-06
  0.15511009D-06  0.27412431D-07  0.33343622D-05  0.15727065D-05  0.27794265D-06
  0.25701329D-05  0.53691298D-05  0.34213369D-05 -0.24639994D-07 -0.51474119D-07
 -0.32800530D-07 -0.25069584D-06 -0.52371552D-06 -0.33372396D-06 -0.90232854D-05
  0.86456721D-07  0.88009181D-06  0.71733758D-05 -0.68704161D-07 -0.69964032D-06
 -0.31992592D-05  0.30605240D-07  0.31201284D-06  0.16753030D-05 -0.15989642D-07
 -0.16336707D-06 -0.43274235D-04 -0.32257901D-04 -0.14953024D-04 -0.34963786D-05
  0.21942932D-04  0.16356914D-04  0.75821835D-05  0.17728979D-05  0.21331303D-04
  0.15900987D-04  0.73708405D-05  0.17234808D-05  0.12540576D-05  0.93481183D-06
  0.43332837D-06  0.10132265D-06  0.12725551D-04  0.94860043D-05  0.43972003D-05
  0.10281718D-05 -0.12069011D-06 -0.89965994D-07 -0.41703385D-07 -0.97512600D-08
  0.33670461D-05 -0.17073331D-05 -0.16597129D-05 -0.97588501D-07 -0.99015949D-06
  0.94219773D-08 -0.79539998D-06  0.40332541D-06  0.39207457D-06  0.23048344D-07
  0.23390423D-06 -0.22272995D-08  0.60078309D-07  0.11219061D-06  0.19097958D-06
  0.29605035D-06  0.39866237D-06  0.30216117D-06 -0.21845995D-06 -0.50888378D-06
 -0.12412873D-06  0.80938360D-06 -0.76420794D-06  0.43753949D-06  0.10617813D-06
  0.29712046D-05  0.22870783D-06 -0.21220715D-08 -0.22270370D-07 -0.83152219D-06
 -0.10648176D-05 -0.11393434D-05 -0.90659039D-06 -0.20865663D-06  0.61713489D-08
  0.79028089D-08  0.84559208D-08  0.67284861D-08  0.15485971D-08  0.80141699D-07
  0.10262660D-06  0.10980936D-06  0.87376734D-07  0.20110223D-07  0.67904026D-06
 -0.14110473D-06 -0.49213268D-08  0.10226529D-08 -0.65382192D-07  0.13586436D-07
  0.18725618D-06 -0.13962367D-08 -0.18050862D-07  0.14634256D-06 -0.15329369D-08
 -0.14344354D-07  0.86610462D-06 -0.80572249D-08 -0.84350032D-07  0.63571641D-06
 -0.32232137D-06 -0.31339504D-06 -0.17806720D-07 -0.18663073D-06  0.16994203D-08
MO    2     MO 0.0        OCC NO =    2.0000000  ORB. ENERGY = -101.414030
  0.18654493D-05  0.34727071D-05  0.57125705D-05  0.76710234D-05  0.72225577D-05
  0.59352565D-06 -0.43978310D-05 -0.11685860D-04  0.15753356D-07 -0.52246413D-04
 -0.48889770D-04 -0.37867016D-04  0.49013229D-06  0.45864307D-06  0.35523678D-06
  0.50902280D-05  0.47631993D-05  0.36892819D-05 -0.49422937D-05  0.27486568D-04
 -0.25910162D-06 -0.26786235D-05  0.59313611D-04 -0.25145887D-04  0.23561105D-06
  0.24498833D-05 -0.12256002D-03  0.26620788D-04 -0.24939015D-06 -0.25934675D-05
 -0.14742037D-04  0.74750953D-05  0.72669420D-05  0.41371072D-06  0.43279319D-05
 -0.39527317D-07  0.76174320D-06  0.13740761D-05  0.20257503D-05 -0.24152189D-04
  0.29788136D-05  0.34780315D-05  0.14290218D-04 -0.93347211D-05  0.13427811D-04
  0.76171507D-06  0.13740253D-05  0.20256755D-05 -0.24152332D-04  0.29787939D-05
  0.34788917D-05  0.11384688D-04 -0.82884298D-05 -0.16536711D-04  0.76175408D-06
  0.13740957D-05  0.20257792D-05 -0.24151763D-04  0.29787882D-05  0.34768940D-05
  0.13161725D-04  0.17258545D-04 -0.67535697D-06  0.30833806D-07  0.57501676D-07
  0.96766835D-07  0.15236024D-06  0.20209864D-06  0.13165688D-06 -0.10619816D-05
 -0.17896868D-05 -0.38141402D-06  0.64683850D-05 -0.91473317D-05  0.87621227D-05
 -0.61863176D-05  0.44720640D-05 -0.59556442D-05 -0.12075502D-04  0.19117662D-05
 -0.18433447D-07 -0.18651962D-06  0.70939821D-05  0.94876950D-05  0.10959020D-04
 -0.70726873D-07 -0.94592148D-07 -0.10926123D-06 -0.69332738D-06 -0.92727592D-06
 -0.10710752D-05 -0.22180730D-04 -0.10461904D-04 -0.18489206D-05  0.22138968D-06
  0.10442207D-06  0.18454395D-07  0.21679513D-05  0.10225497D-05  0.18071406D-06
  0.26857049D-05  0.56105651D-05  0.35751852D-05 -0.26829422D-07 -0.56047937D-07
 -0.35715075D-07 -0.26251391D-06 -0.54840404D-06 -0.34945607D-06 -0.91802801D-05
  0.92133522D-07  0.89755244D-06  0.62980746D-05 -0.63695884D-07 -0.61602091D-06
 -0.16691889D-05  0.17379034D-07  0.16353129D-06  0.20575787D-05 -0.20161153D-07
 -0.20091892D-06  0.95930138D-04  0.71509177D-04  0.33147799D-04  0.77507572D-05
 -0.48642824D-04 -0.36259807D-04 -0.16808092D-04 -0.39301384D-05 -0.47287313D-04
 -0.35249369D-04 -0.16339707D-04 -0.38206188D-05 -0.26506686D-05 -0.19758872D-05
 -0.91591478D-06 -0.21416303D-06 -0.28140577D-04 -0.20976823D-04 -0.97237241D-05
 -0.22736419D-05  0.25731264D-06  0.19180849D-06  0.88912078D-07  0.20789794D-07
 -0.73653057D-05  0.37346804D-05  0.36306253D-05  0.20347297D-06  0.21605541D-05
 -0.19744046D-07  0.16675747D-05 -0.84555671D-06 -0.82201802D-06 -0.45981178D-07
 -0.48912719D-06  0.44537950D-08  0.12702089D+01  0.23719959D+01  0.40377961D+01
  0.62592606D+01  0.84287407D+01  0.63884588D+01  0.23318112D+01  0.54317550D+01
  0.13249329D+01  0.43928390D-01 -0.57171861D-02  0.69106348D-03 -0.22958181D-03
  0.15335746D-03  0.23452177D-04 -0.21881537D-06 -0.22842923D-05  0.92617306D-03
  0.11860241D-02  0.12690331D-02  0.10097861D-02  0.23240769D-03 -0.86524075D-05
 -0.11079964D-04 -0.11855443D-04 -0.94335299D-05 -0.21711774D-05 -0.90218016D-04
 -0.11552997D-03 -0.12361583D-03 -0.98362722D-04 -0.22638707D-04 -0.19189160D-03
  0.39875122D-04  0.17921133D-05 -0.37240158D-06  0.18691869D-04 -0.38841750D-05
 -0.68753831D-04  0.64206890D-06  0.66971821D-05  0.56786552D-05 -0.52891154D-07
 -0.55309613D-06 -0.19895602D-04  0.18578477D-06  0.19379470D-05 -0.15458465D-04
  0.78388267D-05  0.76196388D-05  0.43595849D-06  0.45393343D-05 -0.42537020D-07
MO    3     MO 0.0        OCC NO =    2.0000000  ORB. ENERGY =  -62.207346
  0.99528229D-07  0.18528104D-06  0.30478556D-06  0.40927586D-06  0.38534865D-06
  0.31666664D-07 -0.35894316D-07 -0.95377920D-07  0.12857610D-09  0.43551359D-04
  0.40753342D-04  0.31565038D-04 -0.41006185D-06 -0.38371686D-06 -0.29720354D-06
 -0.42439260D-05 -0.39712691D-05 -0.30759014D-05 -0.47208728D-05 -0.37405631D-04
  0.35863234D-06  0.36486865D-05  0.27509623D-04  0.41634541D-04 -0.38611086D-06
 -0.40536651D-05  0.64090988D-04  0.10774852D-04 -0.10147350D-06 -0.10498970D-05
 -0.42740073D-05  0.21707818D-05  0.21032255D-05  0.12683496D-06  0.12584041D-05
 -0.15160029D-07  0.26485781D-05  0.47776570D-05  0.70435257D-05 -0.26095588D-04
 -0.27722943D-04 -0.24639113D-04 -0.17569084D-04 -0.88400178D-05  0.16205217D-04
  0.26477061D-05  0.47760840D-05  0.70412068D-05 -0.26091681D-04 -0.27714872D-04
 -0.24644985D-04 -0.20403643D-04 -0.78075543D-05 -0.13088222D-04  0.26496633D-05
  0.47796145D-05  0.70464117D-05 -0.26099989D-04 -0.27732309D-04 -0.24631477D-04
 -0.18680779D-04  0.17195468D-04  0.24117425D-05 -0.12742145D+01 -0.23762706D+01
 -0.39989128D+01 -0.62963237D+01 -0.83517749D+01 -0.54407525D+01 -0.53839909D+01
 -0.90732804D+01 -0.19336771D+01  0.58198751D+01  0.24292423D+01  0.10305242D+00
 -0.10896927D-01  0.98657237D-03 -0.27432770D-03  0.31733213D-04 -0.48537465D-05
  0.45541044D-07  0.47289228D-06 -0.28981998D-02 -0.38761354D-02 -0.44772355D-02
  0.28423189D-04  0.38013987D-04  0.43909088D-04  0.28335105D-03  0.37896182D-03
  0.43773014D-03 -0.42670417D-02 -0.20126200D-02 -0.35568807D-03  0.41785416D-04
  0.19708775D-04  0.34831097D-05  0.41711727D-03  0.19674019D-03  0.34769672D-04
  0.20087319D-04  0.41963365D-04  0.26740052D-04 -0.18964034D-06 -0.39616769D-06
 -0.25244745D-06 -0.19564093D-05 -0.40870321D-05 -0.26043538D-05 -0.11338122D-03
  0.10850213D-05  0.11056898D-04  0.96189477D-04 -0.92120977D-06 -0.93812638D-05
 -0.44703903D-04  0.42769358D-06  0.43598023D-05  0.23726495D-04 -0.22645771D-06
 -0.23136856D-05 -0.40250639D-03 -0.30004023D-03 -0.13908248D-03 -0.32520847D-04
  0.20406234D-03  0.15211413D-03  0.70511912D-04  0.16487390D-04  0.19844405D-03
  0.14792610D-03  0.68570564D-04  0.16033456D-04  0.11616286D-04  0.86591249D-05
  0.40139035D-05  0.93854771D-06  0.11829632D-03  0.88181595D-04  0.40876234D-04
  0.95578521D-05 -0.10499226D-05 -0.78264356D-06 -0.36279136D-06 -0.84829395D-07
  0.44116652D-04 -0.22369905D-04 -0.21746746D-04 -0.12780917D-05 -0.12972601D-04
  0.12246478D-06 -0.10950123D-04  0.55524820D-05  0.53976407D-05  0.31732477D-06
  0.32200959D-05 -0.30573338D-07  0.17973554D-06  0.33563926D-06  0.57135128D-06
  0.88569022D-06  0.11926733D-05  0.90397188D-06 -0.18579448D-05 -0.43279235D-05
 -0.10556824D-05  0.98003460D-05 -0.10002052D-04  0.60764772D-05  0.14524060D-05
  0.41984301D-04  0.32158606D-05 -0.29836217D-07 -0.31314251D-06 -0.96503703D-05
 -0.12357919D-04 -0.13222841D-04 -0.10521587D-04 -0.24215996D-05  0.71769151D-07
  0.91905011D-07  0.98337376D-07  0.78248329D-07  0.18009272D-07  0.93017147D-06
  0.11911444D-05  0.12745117D-05  0.10141455D-05  0.23341102D-06  0.73843319D-05
 -0.15344660D-05 -0.53991725D-07  0.11219494D-07 -0.71125966D-06  0.14779993D-06
  0.23445237D-05 -0.17384678D-07 -0.22595046D-06  0.21388901D-05 -0.22250370D-07
 -0.20956958D-06  0.12280460D-04 -0.11424804D-06 -0.11959978D-05  0.90014833D-05
 -0.45639461D-05 -0.44375371D-05 -0.25215599D-06 -0.26426225D-05  0.24071745D-07
MO    4     MO 0.0        OCC NO =    2.0000000  ORB. ENERGY =  -56.025158
 -0.34432239D-05 -0.64098809D-05 -0.10544194D-04 -0.14159083D-04 -0.13331310D-04
 -0.10955225D-05  0.10134099D-04  0.26928198D-04 -0.36301092D-07 -0.14751768D-04
 -0.13804021D-04 -0.10691747D-04  0.14649427D-06  0.13708255D-06  0.10617573D-06
  0.14411785D-05  0.13485880D-05  0.10445335D-05 -0.27092499D-04 -0.14409254D-04
  0.12528182D-06  0.13982694D-05 -0.24824053D-04  0.50613903D-05 -0.44117571D-07
 -0.49211519D-06 -0.10021439D-03  0.40666287D-04 -0.38272067D-06 -0.39625469D-05
  0.32591873D-04 -0.16531862D-04 -0.16060011D-04 -0.91800168D-06 -0.95696496D-05
  0.93640293D-07 -0.78700484D-05 -0.14196444D-04 -0.20929301D-04  0.43981808D-04
 -0.11023987D-04  0.30603002D-05  0.14568788D-04  0.21671979D-04 -0.36567584D-04
 -0.78717540D-05 -0.14199521D-04 -0.20933837D-04  0.43991268D-04 -0.11032083D-04
  0.30689138D-05  0.21476816D-04  0.19189326D-04  0.34484155D-04 -0.78678363D-05
 -0.14192454D-04 -0.20923418D-04  0.43969440D-04 -0.11018742D-04  0.30544823D-05
  0.17221284D-04 -0.41387901D-04 -0.31218232D-05 -0.45915285D-04 -0.85626983D-04
 -0.14409758D-03 -0.22688291D-03 -0.30094943D-03 -0.19605310D-03 -0.20499556D-03
 -0.34546533D-03 -0.73624794D-04  0.27013296D-03  0.10447656D-04  0.81874210D-04
 -0.56771041D-04  0.30591105D-04 -0.20201531D-04 -0.29477689D-04 -0.34241101D-05
  0.34201095D-07  0.33538100D-06  0.87293265D+02  0.11674851D+03  0.13485354D+03
 -0.85110037D+00 -0.11382860D+01 -0.13148082D+01 -0.85289936D+01 -0.11406921D+02
 -0.13175873D+02  0.11224350D+03  0.52941481D+02  0.93562885D+01 -0.10943627D+01
 -0.51617406D+00 -0.91222862D-01 -0.10966757D+02 -0.51726506D+01 -0.91415673D+00
  0.99650095D-01  0.20817378D+00  0.13265328D+00 -0.97156296D-03 -0.20296412D-02
 -0.12933355D-02 -0.97363045D-02 -0.20339603D-01 -0.12960877D-01 -0.37263380D-01
  0.36325996D-03  0.36407712D-02  0.10409271D-01 -0.10144905D-03 -0.10170019D-02
 -0.10647072D-02  0.10367270D-04  0.10401513D-03  0.12171368D-03 -0.11818741D-05
 -0.11887716D-04 -0.71296866D-03 -0.53146804D-03 -0.24635993D-03 -0.57604910D-04
  0.36155572D-03  0.26951439D-03  0.12493234D-03  0.29212203D-04  0.35141294D-03
  0.26195365D-03  0.12142759D-03  0.28392708D-04  0.20859015D-04  0.15548930D-04
  0.72076456D-05  0.16853219D-05  0.20993780D-03  0.15649388D-03  0.72542127D-04
  0.16962104D-04 -0.21499291D-05 -0.16026211D-05 -0.74288873D-06 -0.17370535D-06
  0.25039193D-04 -0.12697658D-04 -0.12341535D-04 -0.72993515D-06 -0.73677077D-05
  0.75550647D-07 -0.54527159D-05  0.27651139D-05  0.26876020D-05  0.15900643D-06
  0.16041084D-05 -0.16051217D-07  0.16931755D-06  0.31618463D-06  0.53823409D-06
  0.83435303D-06  0.11235425D-05  0.85157503D-06 -0.18755492D-05 -0.43689316D-05
 -0.10656853D-05  0.10390478D-04 -0.11333921D-04  0.10479938D-04 -0.12275714D-04
  0.15443759D-03  0.16302268D-04 -0.14993666D-06 -0.15866705D-05 -0.75387410D-04
 -0.96538424D-04 -0.10329508D-03 -0.82193238D-04 -0.18917214D-04  0.71793902D-06
  0.91936706D-06  0.98371290D-06  0.78275315D-06  0.18015483D-06  0.73542999D-05
  0.94176537D-05  0.10076789D-04  0.80182317D-05  0.18454390D-05  0.56998975D-04
 -0.11844401D-04 -0.54334643D-06  0.11290752D-06 -0.55608984D-05  0.11555560D-05
  0.22522144D-04 -0.21396323D-06 -0.21966667D-05 -0.11730687D-04  0.11157143D-06
  0.11442004D-05  0.12838704D-04 -0.12193141D-06 -0.12517876D-05  0.98289219D-06
 -0.49838485D-06 -0.48450734D-06 -0.27622407D-07 -0.28850800D-06  0.27762032D-08
MO    5     MO 0.0        OCC NO =    2.0000000  ORB. ENERGY =  -56.025084
 -0.69552859D-09 -0.12947910D-08 -0.21299191D-08 -0.28601238D-08 -0.26929144D-08
 -0.22129470D-09  0.18864488D-08  0.50126476D-08 -0.67573991D-11  0.75607835D-06
  0.70750305D-06  0.54798846D-06  0.30994501D-05  0.29003217D-05  0.22464112D-05
  0.75290927D-05  0.70453757D-05  0.54569158D-05 -0.26841085D-08 -0.21985708D-06
 -0.88080067D-06 -0.21434410D-05 -0.20901268D-07  0.79879931D-06  0.32598179D-05
  0.79159547D-05 -0.25075498D-07 -0.17875393D-06 -0.75335408D-06 -0.18294589D-05
  0.55585706D-06  0.63440977D-07 -0.61929804D-06  0.21980515D-05  0.53473914D-05
 -0.59503692D-06  0.37428537D-06  0.67515741D-06  0.99535999D-06 -0.38786348D-06
 -0.11474399D-04  0.12471988D-04 -0.81813183D-05 -0.89914645D-05  0.40029086D-05
 -0.64474431D-06 -0.11630267D-05 -0.17146080D-05  0.70450009D-06  0.19566719D-04
 -0.21252199D-04  0.15477524D-04  0.65470391D-05  0.95376221D-05  0.26265260D-06
  0.47378783D-06  0.69848814D-06 -0.26753729D-06 -0.80777167D-05  0.87821415D-05
 -0.64993446D-05  0.55734133D-05 -0.59483726D-05  0.42005747D-08  0.78336123D-08
  0.13182814D-07  0.20756457D-07  0.27532456D-07  0.17935981D-07  0.15227943D-07
  0.25662636D-07  0.54691633D-08 -0.10852928D-07 -0.20079555D-07  0.15576593D-07
 -0.11344693D-07  0.57103401D-08 -0.33733432D-08 -0.29133887D-08 -0.77721092D-06
 -0.31496233D-05 -0.76456637D-05  0.82134573D+01  0.10984913D+02  0.12688422D+02
  0.33263677D+02  0.44487795D+02  0.51386835D+02  0.80744435D+02  0.10798992D+03
  0.12473669D+03  0.10561071D+02  0.49813018D+01  0.88033987D+00  0.42771276D+02
  0.20173772D+02  0.35652881D+01  0.10382324D+03  0.48969927D+02  0.86544003D+01
  0.93704597D-02  0.19575336D-01  0.12473868D-01  0.37949346D-01  0.79277987D-01
  0.50517815D-01  0.92118453D-01  0.19243983D+00  0.12262722D+00 -0.34863884D-02
 -0.14119261D-01 -0.34273167D-01  0.96451617D-03  0.39060012D-02  0.94814480D-02
 -0.94973682D-04 -0.38457297D-03 -0.93351543D-03  0.94894548D-05  0.38413373D-04
  0.93245215D-04 -0.68477213D-04 -0.51044951D-04 -0.23661687D-04 -0.55326748D-05
  0.89528946D-06  0.66737538D-06  0.30935925D-06  0.72335675D-07  0.67581924D-04
  0.50377575D-04  0.23352328D-04  0.54603391D-05 -0.27580308D-03 -0.20559182D-03
 -0.95301283D-04 -0.22283745D-04 -0.66532265D-03 -0.49595128D-03 -0.22989628D-03
 -0.53755310D-04  0.40514890D-04  0.30201003D-04  0.13999557D-04  0.32734350D-05
  0.75960922D-06  0.82771962D-07 -0.84238118D-06  0.30228289D-05  0.73437629D-05
 -0.79501948D-06 -0.74434290D-07 -0.27312522D-07  0.10174681D-06 -0.28930904D-06
 -0.71459043D-06  0.14930466D-06 -0.14865912D-10 -0.27760695D-10 -0.47256416D-10
 -0.73255363D-10 -0.98645911D-10 -0.74767438D-10  0.16750529D-09  0.39018926D-09
  0.95176343D-10 -0.88285438D-09  0.85854838D-09 -0.76453271D-09  0.68889882D-09
  0.25966499D-07 -0.78512920D-07 -0.33004301D-06 -0.80146493D-06 -0.37453575D-05
 -0.47961710D-05 -0.51318515D-05 -0.40834810D-05 -0.93983502D-06 -0.15258286D-04
 -0.19539215D-04 -0.20906751D-04 -0.16635774D-04 -0.38288124D-05 -0.37040808D-04
 -0.47433136D-04 -0.50752947D-04 -0.40384780D-04 -0.92947734D-05  0.30138806D-05
 -0.62628512D-06  0.12280703D-04 -0.25519331D-05  0.29812521D-04 -0.61950491D-05
  0.94342582D-06  0.38413214D-05  0.93251229D-05 -0.48904730D-06 -0.19915155D-05
 -0.48346328D-05  0.16050647D-06  0.64579145D-06  0.15673906D-05 -0.37543503D-07
  0.24410040D-06 -0.20655690D-06 -0.22328933D-06 -0.39392415D-06 -0.88334714D-06
MO    6     MO 0.0        OCC NO =    2.0000000  ORB. ENERGY =  -56.025084
 -0.27678213D-09 -0.51525562D-09 -0.84759065D-09 -0.11381720D-08 -0.10716318D-08
 -0.88063122D-10  0.68571666D-09  0.18220776D-08 -0.24562879D-11 -0.23425419D-06
 -0.21920420D-06 -0.16978213D-06  0.75569654D-05  0.70714577D-05  0.54771173D-05
 -0.30913253D-05 -0.28927188D-05 -0.22405225D-05  0.14302790D-09  0.64451682D-07
 -0.21435737D-05  0.87879901D-06 -0.14922031D-07 -0.24508634D-06  0.79500935D-05
 -0.32512806D-05 -0.10243404D-07  0.57457369D-07 -0.18375359D-05  0.75124444D-06
 -0.16386166D-06  0.11152859D-06  0.52333065D-07  0.54689871D-05 -0.22427014D-05
 -0.33447659D-06 -0.52499053D-06 -0.94700801D-06 -0.13961394D-05  0.56873296D-06
  0.15962343D-04 -0.17337569D-04  0.10635985D-04  0.17791681D-05 -0.12264925D-04
 -0.65625042D-07 -0.11837821D-06 -0.17452069D-06  0.77766508D-07  0.19632484D-05
 -0.21280086D-05  0.18321446D-05 -0.59027467D-05  0.44435436D-05  0.58625498D-06
  0.10575203D-05  0.15590637D-05 -0.61748349D-06 -0.17911221D-04  0.19465892D-04
 -0.12682778D-04  0.11758824D-04  0.46983476D-05  0.16741538D-08  0.31221137D-08
  0.52540567D-08  0.82725589D-08  0.10973157D-07  0.71484485D-08  0.61217211D-08
  0.10316528D-07  0.21986352D-08 -0.56776192D-08 -0.62742139D-08  0.53319563D-08
 -0.39318378D-08  0.18672538D-08 -0.95382431D-09  0.39342751D-09  0.23204766D-06
 -0.76842275D-05  0.31420970D-05 -0.24509925D+01 -0.32780276D+01 -0.37863748D+01
  0.81156641D+02  0.10854122D+03  0.12537348D+03 -0.33184171D+02 -0.44381461D+02
 -0.51264012D+02 -0.31515481D+01 -0.14864792D+01 -0.26270380D+00  0.10435326D+03
  0.49219922D+02  0.86985815D+01 -0.42669045D+02 -0.20125553D+02 -0.35567664D+01
 -0.27962412D-02 -0.58414808D-02 -0.37223302D-02  0.92588719D-01  0.19342224D+00
  0.12325324D+00 -0.37858638D-01 -0.79088494D-01 -0.50397065D-01  0.10403293D-02
 -0.34448123D-01  0.14085509D-01 -0.28778675D-03  0.95298448D-02 -0.38966651D-02
  0.28330175D-04 -0.93827900D-03  0.38365474D-03 -0.28288589D-05  0.93720401D-04
 -0.38321821D-04  0.20380541D-04  0.15192261D-04  0.70423133D-05  0.16466632D-05
  0.32737439D-05  0.24403460D-05  0.11312129D-05  0.26450493D-06 -0.23654285D-04
 -0.17632607D-04 -0.81735262D-05 -0.19111681D-05 -0.67637910D-03 -0.50419309D-03
 -0.23371674D-03 -0.54648626D-04  0.27486587D-03  0.20489319D-03  0.94977438D-04
  0.22208022D-04  0.59732474D-04  0.44526362D-04  0.20640021D-04  0.48261361D-05
 -0.22673800D-06  0.13743497D-06  0.89303029D-07  0.75031295D-05 -0.30708582D-05
 -0.47532538D-06  0.22556844D-07 -0.49651345D-07  0.27094502D-07 -0.73826271D-06
  0.30700935D-06  0.79204581D-08 -0.29175090D-10 -0.54481743D-10 -0.92743064D-10
 -0.14376729D-09 -0.19359750D-09 -0.14673481D-09  0.32563565D-09  0.75854042D-09
  0.18502586D-09 -0.17640683D-08  0.18316154D-08 -0.16561165D-08  0.17915416D-08
  0.64970271D-08  0.25104157D-07 -0.80512333D-06  0.32916582D-06  0.11466896D-05
  0.14684098D-05  0.15711827D-05  0.12502105D-05  0.28774265D-06 -0.37225657D-04
 -0.47669847D-04 -0.51006225D-04 -0.40586316D-04 -0.93411581D-05  0.15219399D-04
  0.19489418D-04  0.20853469D-04  0.16593376D-04  0.38190544D-05 -0.92308046D-06
  0.19181635D-06  0.29961233D-04 -0.62259516D-05 -0.12249386D-04  0.25454255D-05
 -0.28856790D-06  0.93716558D-05 -0.38315437D-05  0.14968189D-06 -0.48586306D-05
  0.19864382D-05 -0.47779747D-07  0.15758395D-05 -0.64427358D-06  0.66981519D-08
  0.45475110D-06 -0.46144925D-06 -0.28581323D-06  0.56210603D-07  0.51452733D-06
MO    7     MO 0.0        OCC NO =    2.0000000  ORB. ENERGY =  -10.086828
  0.43814309D+00  0.81564403D+00  0.13417268D+01  0.18017139D+01  0.16963815D+01
  0.13940296D+00  0.37087806D+00  0.98549246D+00 -0.13285127D-02 -0.32575411D-02
 -0.30482558D-02 -0.23609920D-02  0.30670176D-04  0.28699728D-04  0.22229049D-04
  0.31742082D-03  0.29702768D-03  0.23005942D-03  0.79286583D-02  0.16685568D-02
 -0.15672550D-04 -0.16255763D-03 -0.15037997D-02  0.61594562D-04 -0.58299680D-06
 -0.60049332D-05 -0.69679950D-03 -0.72354977D-04  0.68545228D-06  0.70515978D-05
 -0.12203540D-02  0.61883517D-03  0.60151886D-03  0.34213961D-04  0.35823902D-03
 -0.33252943D-05  0.56416019D-04  0.10176645D-03  0.15003057D-03 -0.12844837D-02
  0.72855956D-03  0.31513135D-04  0.73163817D-03 -0.12126060D-02  0.18709703D-02
  0.56416117D-04  0.10176663D-03  0.15003083D-03 -0.12845306D-02  0.72857794D-03
  0.31501132D-04  0.35047271D-03 -0.10754933D-02 -0.20559488D-02  0.56416171D-04
  0.10176672D-03  0.15003098D-03 -0.12844242D-02  0.72853237D-03  0.31520784D-04
  0.58411045D-03  0.22725026D-02  0.22673590D-04 -0.14844872D-06 -0.27684062D-06
 -0.46588190D-06 -0.73353519D-06 -0.97299966D-06 -0.63385931D-06  0.21919366D-05
  0.36939243D-05  0.78724085D-06 -0.20625766D-04  0.36892265D-04 -0.43871147D-04
  0.31674725D-04  0.35268760D-06  0.17050605D-04  0.10602505D-03 -0.17896083D-04
  0.17058005D-06  0.17450011D-05  0.15414491D-03  0.20615782D-03  0.23812819D-03
 -0.14945013D-05 -0.19987889D-05 -0.23087554D-05 -0.15044789D-04 -0.20121332D-04
 -0.23241691D-04  0.56607485D-03  0.26699846D-03  0.47186339D-04 -0.54878165D-05
 -0.25884184D-05 -0.45744828D-06 -0.55249273D-04 -0.26059224D-04 -0.46054173D-05
 -0.80097560D-04 -0.16732761D-03 -0.10662512D-03  0.77627081D-06  0.16216666D-05
  0.10333644D-05  0.78174320D-05  0.16330987D-04  0.10406492D-04  0.35320398D-03
 -0.34175536D-05 -0.34469200D-04 -0.29818822D-03  0.28800559D-05  0.29097335D-04
  0.10329288D-03 -0.99815435D-06 -0.10079626D-04 -0.25279140D-04  0.25025792D-06
  0.24701144D-05 -0.10677369D-02 -0.79592285D-03 -0.36894693D-03 -0.86268715D-04
  0.54156871D-03  0.40370142D-03  0.18713421D-03  0.43756505D-04  0.52616822D-03
  0.39222144D-03  0.18181271D-03  0.42512210D-04  0.29776315D-04  0.22196150D-04
  0.10288939D-04  0.24058027D-05  0.31332602D-03  0.23356253D-03  0.10826700D-03
  0.25315443D-04 -0.30231492D-05 -0.22535453D-05 -0.10446221D-05 -0.24425792D-06
  0.10503634D-03 -0.53275358D-04 -0.51760985D-04 -0.29293223D-05 -0.30822872D-04
  0.29713023D-06 -0.36121480D-04  0.18320682D-04  0.17800799D-04  0.10079567D-05
  0.10600181D-04 -0.10181531D-06 -0.11406085D-04 -0.21299794D-04 -0.36258166D-04
 -0.56206234D-04 -0.75687497D-04 -0.57366394D-04 -0.49965648D-04 -0.11639071D-03
 -0.28390433D-04  0.14567114D-03 -0.10162395D-03 -0.13863122D-04  0.22633111D-03
  0.82710164D-04  0.69868555D-05 -0.71989955D-07 -0.68399357D-06 -0.14969756D-02
 -0.19169734D-02 -0.20511410D-02 -0.16321196D-02 -0.37564106D-03  0.13987304D-04
  0.17911642D-04  0.19165264D-04  0.15250050D-04  0.35098807D-05  0.14581747D-03
  0.18672864D-03  0.19979764D-03  0.15898158D-03  0.36590463D-04  0.82540291D-03
 -0.17151893D-03 -0.77126807D-05  0.16026969D-05 -0.80401168D-04  0.16707382D-04
  0.23484838D-03 -0.21910716D-05 -0.22873728D-04  0.13305136D-03 -0.12480688D-05
 -0.12963674D-04  0.76560755D-04 -0.71217371D-06 -0.74561345D-05  0.22042637D-03