 Single Point Energy
GAUSSIAN             31 MOL ORBITALS    210 PRIMITIVES        6 NUCLEI   B3LYP
  C    1    (CENTRE  1)  -0.60765546  0.00878824  0.07170855  CHARGE =  6.0
  H    2    (CENTRE  2)  -1.00070584 -1.02101646  1.79026735  CHARGE =  1.0
  H    3    (CENTRE  3)  -1.39568005 -0.90253410 -1.57660259  CHARGE =  1.0
  H    4    (CENTRE  4)  -1.14591301  1.97378858  0.20398645  CHARGE =  1.0
  Br   5    (CENTRE  5)   3.21666520 -0.04435006 -0.37877158  CHARGE = 35.0
  Cl   6    (CENTRE  6)  -6.19970885  0.08525205  0.72994723  CHARGE = 17.0
CENTRE ASSIGNMENTS    1  1  1  1  1  1  1  1  1  1  1  1  1  1  1  1  1  1  1  1
CENTRE ASSIGNMENTS    1  1  1  1  1  1  1  1  1  1  1  1  1  1  1  1  2  2  2  2
CENTRE ASSIGNMENTS    2  2  2  2  2  3  3  3  3  3  3  3  3  3  4  4  4  4  4  4
CENTRE ASSIGNMENTS    4  4  4  5  5  5  5  5  5  5  5  5  5  5  5  5  5  5  5  5
CENTRE ASSIGNMENTS    5  5  5  5  5  5  5  5  5  5  5  5  5  5  5  5  5  5  5  5
CENTRE ASSIGNMENTS    5  5  5  5  5  5  5  5  5  5  5  5  5  5  5  5  5  5  5  5
CENTRE ASSIGNMENTS    5  5  5  5  5  5  5  5  5  5  5  5  5  5  5  5  5  5  5  5
CENTRE ASSIGNMENTS    5  5  5  5  5  5  5  5  5  5  5  5  5  5  5  5  5  6  6  6
CENTRE ASSIGNMENTS    6  6  6  6  6  6  6  6  6  6  6  6  6  6  6  6  6  6  6  6
CENTRE ASSIGNMENTS    6  6  6  6  6  6  6  6  6  6  6  6  6  6  6  6  6  6  6  6
CENTRE ASSIGNMENTS    6  6  6  6  6  6  6  6  6  6
TYPE ASSIGNMENTS      1  1  1  1  1  1  1  1  1  2  2  2  3  3  3  4  4  4  1  2
TYPE ASSIGNMENTS      3  4  1  2  3  4  1  2  3  4  5  6  7  8  9 10  1  1  1  1
TYPE ASSIGNMENTS      1  1  2  3  4  1  1  1  1  1  1  2  3  4  1  1  1  1  1  1
TYPE ASSIGNMENTS      2  3  4  1  1  1  1  1  1  1  1  1  1  1  1  1  1  1  1  2
TYPE ASSIGNMENTS      3  4  2  2  2  3  3  3  4  4  4  2  2  2  3  3  3  4  4  4
TYPE ASSIGNMENTS      2  2  2  3  3  3  4  4  4  2  3  4  2  3  4  2  3  4  2  3
TYPE ASSIGNMENTS      4  5  5  5  5  6  6  6  6  7  7  7  7  8  8  8  8  9  9  9
TYPE ASSIGNMENTS      9 10 10 10 10  5  6  7  8  9 10  5  6  7  8  9 10  1  1  1
TYPE ASSIGNMENTS      1  1  1  1  1  1  1  1  1  1  1  2  3  4  2  2  2  2  2  3
TYPE ASSIGNMENTS      3  3  3  3  4  4  4  4  4  2  2  3  3  4  4  2  3  4  2  3
TYPE ASSIGNMENTS      4  2  3  4  5  6  7  8  9 10
EXPONENTS  0.4563240D+04 0.6820240D+03 0.1549730D+03 0.4445530D+02 0.1302900D+02
EXPONENTS  0.1827730D+01 0.2096420D+02 0.4803310D+01 0.1459330D+01 0.2096420D+02
EXPONENTS  0.4803310D+01 0.1459330D+01 0.2096420D+02 0.4803310D+01 0.1459330D+01
EXPONENTS  0.2096420D+02 0.4803310D+01 0.1459330D+01 0.4834560D+00 0.4834560D+00
EXPONENTS  0.4834560D+00 0.4834560D+00 0.1455850D+00 0.1455850D+00 0.1455850D+00
EXPONENTS  0.1455850D+00 0.4380000D-01 0.4380000D-01 0.4380000D-01 0.4380000D-01
EXPONENTS  0.6260000D+00 0.6260000D+00 0.6260000D+00 0.6260000D+00 0.6260000D+00
EXPONENTS  0.6260000D+00 0.3386500D+02 0.5094790D+01 0.1158790D+01 0.3258400D+00
EXPONENTS  0.1027410D+00 0.3600000D-01 0.7500000D+00 0.7500000D+00 0.7500000D+00
EXPONENTS  0.3386500D+02 0.5094790D+01 0.1158790D+01 0.3258400D+00 0.1027410D+00
EXPONENTS  0.3600000D-01 0.7500000D+00 0.7500000D+00 0.7500000D+00 0.3386500D+02
EXPONENTS  0.5094790D+01 0.1158790D+01 0.3258400D+00 0.1027410D+00 0.3600000D-01
EXPONENTS  0.7500000D+00 0.7500000D+00 0.7500000D+00 0.4397000D+06 0.6603000D+05
EXPONENTS  0.1514000D+05 0.4317000D+04 0.1414000D+04 0.5239000D+03 0.5239000D+03
EXPONENTS  0.2077000D+03 0.8654000D+02 0.3052000D+02 0.1298000D+02 0.4412000D+01
EXPONENTS  0.1862000D+01 0.3932000D+00 0.1400000D+00 0.3500000D-01 0.3500000D-01
EXPONENTS  0.3500000D-01 0.3500000D-01 0.2957000D+04 0.7003000D+03 0.2246000D+03
EXPONENTS  0.2957000D+04 0.7003000D+03 0.2246000D+03 0.2957000D+04 0.7003000D+03
EXPONENTS  0.2246000D+03 0.8259000D+02 0.3319000D+02 0.1420000D+02 0.8259000D+02
EXPONENTS  0.3319000D+02 0.1420000D+02 0.8259000D+02 0.3319000D+02 0.1420000D+02
EXPONENTS  0.1420000D+02 0.7438000D+01 0.3526000D+01 0.1420000D+02 0.7438000D+01
EXPONENTS  0.3526000D+01 0.1420000D+02 0.7438000D+01 0.3526000D+01 0.1595000D+01
EXPONENTS  0.1595000D+01 0.1595000D+01 0.8462000D+00 0.8462000D+00 0.8462000D+00
EXPONENTS  0.3186000D+00 0.3186000D+00 0.3186000D+00 0.1096000D+00 0.1096000D+00
EXPONENTS  0.1096000D+00 0.1348000D+03 0.3639000D+02 0.1216000D+02 0.4341000D+01
EXPONENTS  0.1348000D+03 0.3639000D+02 0.1216000D+02 0.4341000D+01 0.1348000D+03
EXPONENTS  0.3639000D+02 0.1216000D+02 0.4341000D+01 0.1348000D+03 0.3639000D+02
EXPONENTS  0.1216000D+02 0.4341000D+01 0.1348000D+03 0.3639000D+02 0.1216000D+02
EXPONENTS  0.4341000D+01 0.1348000D+03 0.3639000D+02 0.1216000D+02 0.4341000D+01
EXPONENTS  0.1535000D+01 0.1535000D+01 0.1535000D+01 0.1535000D+01 0.1535000D+01
EXPONENTS  0.1535000D+01 0.4510000D+00 0.4510000D+00 0.4510000D+00 0.4510000D+00
EXPONENTS  0.4510000D+00 0.4510000D+00 0.1058190D+06 0.1587200D+05 0.3619650D+04
EXPONENTS  0.1030800D+04 0.3399080D+03 0.1245380D+03 0.1245380D+03 0.4951350D+02
EXPONENTS  0.2080560D+02 0.6583460D+01 0.2564680D+01 0.5597630D+00 0.1832730D+00
EXPONENTS  0.4830000D-01 0.4830000D-01 0.4830000D-01 0.4830000D-01 0.5897760D+03
EXPONENTS  0.1398490D+03 0.4514130D+02 0.1687330D+02 0.2771520D+01 0.5897760D+03
EXPONENTS  0.1398490D+03 0.4514130D+02 0.1687330D+02 0.2771520D+01 0.5897760D+03
EXPONENTS  0.1398490D+03 0.4514130D+02 0.1687330D+02 0.2771520D+01 0.6741100D+01
EXPONENTS  0.2771520D+01 0.6741100D+01 0.2771520D+01 0.6741100D+01 0.2771520D+01
EXPONENTS  0.1023870D+01 0.1023870D+01 0.1023870D+01 0.3813680D+00 0.3813680D+00
EXPONENTS  0.3813680D+00 0.1094370D+00 0.1094370D+00 0.1094370D+00 0.7500000D+00
EXPONENTS  0.7500000D+00 0.7500000D+00 0.7500000D+00 0.7500000D+00 0.7500000D+00
MO    1     MO 0.0        OCC NO =    2.0000000  ORB. ENERGY = -482.686825
  0.21292588D-06  0.39638130D-06  0.65204351D-06  0.87558500D-06  0.82439628D-06
  0.67746131D-07 -0.47878587D-06 -0.12722237D-05  0.17150464D-08  0.44140644D-05
  0.41304767D-05  0.31992139D-05 -0.61413587D-07 -0.57467986D-07 -0.44511177D-07
 -0.51995980D-06 -0.48655427D-06 -0.37685508D-06  0.44482092D-07 -0.84806182D-06
  0.11638343D-07  0.99811638D-07  0.54926193D-05  0.12112937D-05 -0.17137280D-07
 -0.14279761D-06  0.82989989D-05  0.32761407D-05 -0.45291297D-07 -0.38581899D-06
 -0.24495573D-05  0.12500160D-05  0.11995412D-05  0.10315658D-06  0.87191319D-06
 -0.12072935D-07 -0.20845514D-06 -0.37602333D-06 -0.55435750D-06 -0.10951143D-05
 -0.14266878D-05 -0.29918991D-06  0.32195772D-08 -0.68838195D-06  0.11122781D-05
 -0.20843842D-06 -0.37599317D-06 -0.55431304D-06 -0.10953295D-05 -0.14268581D-05
 -0.29936701D-06 -0.25946862D-06 -0.60983463D-06 -0.11281369D-05 -0.20848875D-06
 -0.37608396D-06 -0.55444689D-06 -0.10947484D-05 -0.14263086D-05 -0.29881051D-06
 -0.93814997D-07  0.13028818D-05  0.56980445D-07  0.38584363D+01  0.71955615D+01
  0.12109068D+02  0.19065835D+02  0.25289927D+02  0.16475089D+02  0.96359544D+01
  0.16238831D+02  0.34607831D+01  0.81731583D-01 -0.11320704D-01  0.24948700D-02
 -0.64893036D-03  0.75056724D-04 -0.26418819D-04 -0.57360611D-05  0.61911523D-06
 -0.86885407D-08 -0.72960457D-07 -0.23330632D-02 -0.31203056D-02 -0.36041937D-02
  0.32460785D-04  0.43413984D-04  0.50146501D-04  0.27482855D-03  0.36756359D-03
  0.42456430D-03 -0.26176666D-03 -0.12346653D-03 -0.21820101D-04  0.36461267D-05
  0.17197553D-05  0.30393042D-06  0.30837134D-04  0.14544838D-04  0.25704930D-05
  0.68293345D-05  0.14266804D-04  0.90911462D-05 -0.95463701D-07 -0.19942821D-06
 -0.12708039D-06 -0.80466154D-06 -0.16809762D-05 -0.10711579D-05 -0.16665294D-04
  0.23341749D-06  0.19637697D-05  0.12043781D-04 -0.16870923D-06 -0.14192010D-05
 -0.48991299D-05  0.68543444D-07  0.57726589D-06  0.37905515D-05 -0.52820348D-07
 -0.44655978D-06 -0.32586453D-04 -0.24290911D-04 -0.11259957D-04 -0.26328502D-05
  0.16628698D-04  0.12395526D-04  0.57458975D-05  0.13435298D-05  0.15957755D-04
  0.11895385D-04  0.55140592D-05  0.12893204D-05  0.13813803D-05  0.10297220D-05
  0.47732360D-06  0.11160980D-06  0.11602439D-04  0.86488027D-05  0.40091187D-05
  0.93742891D-06 -0.16214921D-06 -0.12087084D-06 -0.56029205D-07 -0.13100983D-07
  0.56787853D-05 -0.28979778D-05 -0.27808075D-05 -0.23942231D-06 -0.20214022D-05
  0.28153688D-07 -0.16930135D-05  0.86397891D-06  0.82903457D-06  0.71300707D-07
  0.60260796D-06 -0.83868362D-08  0.16709640D-06  0.31203684D-06  0.53117340D-06
  0.82340778D-06  0.11088036D-05  0.84040386D-06 -0.60836086D-06 -0.14171246D-05
 -0.34567005D-06  0.22666448D-05 -0.21669226D-05  0.16695239D-05 -0.20316304D-05
  0.47116585D-05  0.77162348D-06 -0.10429074D-07 -0.90781371D-07 -0.12079580D-04
 -0.15468678D-04 -0.16551320D-04 -0.13170101D-04 -0.30311692D-05  0.16473533D-06
  0.21095417D-06  0.22571871D-06  0.17960731D-06  0.41337584D-07  0.14217223D-05
  0.18206068D-05  0.19480298D-05  0.15500727D-05  0.35675752D-06  0.10637256D-04
 -0.22104245D-05 -0.14504171D-06  0.30139704D-07 -0.12519569D-05  0.26015695D-06
  0.27854630D-05 -0.38014606D-07 -0.32784957D-06 -0.14434784D-05  0.19738097D-07
  0.16991237D-06  0.75729248D-06 -0.10433832D-07 -0.89171011D-07  0.63730808D-06
 -0.32527203D-06 -0.31203606D-06 -0.26067600D-07 -0.22653398D-06  0.30896509D-08
MO    2     MO 0.0        OCC NO =    2.0000000  ORB. ENERGY = -101.258163
  0.58720147D-06  0.10931300D-05  0.17981886D-05  0.24146656D-05  0.22734986D-05
  0.18682852D-06 -0.14860421D-05 -0.39486920D-05  0.53231127D-08 -0.16098428D-04
 -0.15064163D-04 -0.11667776D-04  0.21969485D-06  0.20558025D-06  0.15922985D-06
  0.18947587D-05  0.17730273D-05  0.13732782D-05 -0.27965957D-06  0.12169728D-04
 -0.16105464D-06 -0.14303978D-05  0.18826624D-04 -0.18325144D-04  0.25448571D-06
  0.21585695D-05 -0.12373270D-05  0.51277069D-05 -0.70251345D-07 -0.60363640D-06
 -0.62245929D-05  0.31791709D-05  0.30454220D-05  0.25869319D-06  0.22135839D-05
 -0.31858518D-07  0.31924680D-05  0.57587568D-05  0.84899254D-05 -0.26662073D-04
  0.22668070D-05 -0.69088036D-05  0.11916431D-04 -0.80588387D-05  0.11346491D-04
  0.31921533D-05  0.57581891D-05  0.84890885D-05 -0.26661337D-04  0.22698486D-05
 -0.69121088D-05  0.89029288D-05 -0.71522026D-05 -0.14317879D-04  0.31930930D-05
  0.57598842D-05  0.84915875D-05 -0.26663475D-04  0.22606845D-05 -0.69021418D-05
  0.10815105D-04  0.14788665D-04 -0.74832122D-06  0.84627766D-07  0.15782152D-06
  0.26559034D-06  0.41817434D-06  0.55468844D-06  0.36135104D-06 -0.29362568D-05
 -0.49482775D-05 -0.10545658D-05  0.17866358D-04 -0.25207481D-04  0.23932512D-04
 -0.16523573D-04  0.89524534D-05 -0.48951643D-05  0.36610523D-05 -0.97615858D-06
  0.13040068D-07  0.11478647D-06  0.38336121D-05  0.51271827D-05  0.59222916D-05
 -0.52449827D-07 -0.70147902D-07 -0.81026239D-07 -0.45122499D-06 -0.60348124D-06
 -0.69706739D-06 -0.11389464D-04 -0.53720270D-05 -0.94939229D-06  0.15564252D-06
  0.73411340D-07  0.12973904D-07  0.13404879D-05  0.63226304D-06  0.11173914D-06
  0.14189694D-05  0.29642945D-05  0.18889188D-05 -0.19398850D-07 -0.40525120D-07
 -0.25823568D-07 -0.16700944D-06 -0.34889066D-06 -0.22232141D-06 -0.54888418D-05
  0.75153476D-07  0.64607021D-06  0.46650955D-05 -0.64021641D-07 -0.54916987D-06
 -0.30023009D-05  0.41458743D-07  0.35353659D-06 -0.25984930D-05  0.36122660D-07
  0.30609466D-06  0.16555915D-03  0.12341272D-03  0.57207482D-04  0.13376493D-04
 -0.84485826D-04 -0.62978247D-04 -0.29193320D-04 -0.68261043D-05 -0.81073328D-04
 -0.60434469D-04 -0.28014162D-04 -0.65503886D-05 -0.69607975D-05 -0.51887854D-05
 -0.24052412D-05 -0.56240356D-06 -0.58924784D-04 -0.43924286D-04 -0.20360931D-04
 -0.47608781D-05  0.81713161D-06  0.60911420D-06  0.28235251D-06  0.66020844D-07
 -0.13359913D-04  0.68176501D-05  0.65422632D-05  0.56171800D-06  0.47549782D-05
 -0.65944771D-07  0.41218412D-05 -0.21034209D-05 -0.20184203D-05 -0.17329737D-06
 -0.14670117D-05  0.20356545D-07  0.12702096D+01  0.23719973D+01  0.40377984D+01
  0.62592642D+01  0.84287456D+01  0.63884625D+01  0.23318245D+01  0.54317858D+01
  0.13249404D+01  0.43857682D-01 -0.56505159D-02  0.63803957D-03 -0.16890482D-03
  0.37838868D-04  0.78301940D-05 -0.10760695D-06 -0.92189649D-06  0.14543521D-03
  0.18623914D-03  0.19927388D-03  0.15856482D-03  0.36494542D-04 -0.19725043D-05
 -0.25259186D-05 -0.27027058D-05 -0.21505782D-05 -0.49496708D-06 -0.17113624D-04
 -0.21915096D-04 -0.23448917D-04 -0.18658609D-04 -0.42943787D-05 -0.73494993D-04
  0.15272277D-04  0.99862172D-06 -0.20751384D-06  0.86484154D-05 -0.17971428D-05
 -0.25941641D-04  0.35314235D-06  0.30530091D-05  0.15592894D-04 -0.21286955D-06
 -0.18353044D-05 -0.11550301D-04  0.15821351D-06  0.13596884D-05 -0.53646266D-05
  0.27376352D-05  0.26269914D-05  0.22104393D-06  0.19075854D-05 -0.25998617D-07
MO    3     MO 0.0        OCC NO =    2.0000000  ORB. ENERGY =  -62.339857
  0.22931400D-05  0.42688929D-05  0.70222886D-05  0.94297551D-05  0.88784699D-05
  0.72960297D-06 -0.57623243D-05 -0.15311575D-04  0.20641072D-07  0.62278289D-04
  0.58277134D-04  0.45137893D-04 -0.86641955D-06 -0.81075523D-06 -0.62796126D-06
 -0.73361214D-05 -0.68648022D-05 -0.53170546D-05  0.85822675D-06 -0.13030281D-04
  0.17902393D-06  0.15337037D-05  0.76683469D-04  0.16782298D-04 -0.23750381D-06
 -0.19784640D-05  0.11799475D-03  0.46375901D-04 -0.64112999D-06 -0.54615185D-05
 -0.35706943D-04  0.18221361D-04  0.17485582D-04  0.15034415D-05  0.12709678D-04
 -0.17598212D-06 -0.29395963D-05 -0.53026123D-05 -0.78174482D-05 -0.15340265D-04
 -0.20318871D-04 -0.43486062D-05  0.85793528D-07 -0.97406843D-05  0.15732958D-04
 -0.29393654D-05 -0.53021958D-05 -0.78168343D-05 -0.15343276D-04 -0.20321267D-04
 -0.43511346D-05 -0.36310599D-05 -0.86292319D-05 -0.15966778D-04 -0.29400604D-05
 -0.53034494D-05 -0.78186824D-05 -0.15335142D-04 -0.20313533D-04 -0.43431765D-05
 -0.12870094D-05  0.18434229D-04  0.80142441D-06 -0.12742127D+01 -0.23762673D+01
 -0.39989072D+01 -0.62963148D+01 -0.83517632D+01 -0.54407449D+01 -0.53840041D+01
 -0.90733027D+01 -0.19336819D+01  0.58200009D+01  0.24290325D+01  0.10326449D+00
 -0.11045194D-01  0.10838340D-02 -0.37645771D-03 -0.81048236D-04  0.88217549D-05
 -0.12380058D-06 -0.10396099D-05 -0.56005195D-01 -0.74902953D-01 -0.86518690D-01
  0.77916862D-03  0.10420824D-02  0.12036856D-02  0.65972452D-02  0.88233448D-02
  0.10191644D-01 -0.77772877D-01 -0.36682850D-01 -0.64829188D-02  0.10820577D-02
  0.51037019D-03  0.90197151D-04  0.91614409D-02  0.43211435D-02  0.76367083D-03
 -0.15050121D-03 -0.31440417D-03 -0.20034580D-03  0.20884708D-05  0.43629148D-05
  0.27801528D-05  0.17725692D-04  0.37029814D-04  0.23596276D-04 -0.63440949D-04
  0.90254671D-06  0.74823567D-05  0.11336715D-03 -0.15923347D-05 -0.13361039D-04
 -0.63121865D-04  0.88341801D-06  0.74378551D-05  0.52654083D-04 -0.73372294D-06
 -0.62031170D-05  0.62658928D-02  0.46707827D-02  0.21651231D-02  0.50625814D-03
 -0.31977176D-02 -0.23836738D-02 -0.11049427D-02 -0.25836232D-03 -0.30681751D-02
 -0.22871090D-02 -0.10601804D-02 -0.24789582D-03 -0.26293334D-03 -0.19599833D-03
 -0.90854260D-04 -0.21243923D-04 -0.22298104D-02 -0.16621670D-02 -0.77049100D-03
 -0.18015943D-03  0.30942696D-04  0.23065606D-04  0.10691971D-04  0.25000415D-05
  0.23767217D-04 -0.12127857D-04 -0.11639359D-04 -0.10111041D-05 -0.84644753D-05
  0.11895866D-06 -0.20198140D-04  0.10307471D-04  0.98906692D-05  0.85105482D-06
  0.71894852D-05 -0.10011590D-06  0.50646402D-06  0.94577404D-06  0.16099702D-05
  0.24957236D-05  0.33607495D-05  0.25472381D-05 -0.51664389D-05 -0.12034778D-04
 -0.29355656D-05  0.27418194D-04 -0.28375261D-04  0.23317951D-04 -0.28798946D-04
  0.66766938D-04  0.10961910D-04 -0.14816680D-06 -0.12896700D-05 -0.13894600D-03
 -0.17792929D-03 -0.19038243D-03 -0.15148978D-03 -0.34866183D-04  0.18951954D-05
  0.24269195D-05  0.25967779D-05  0.20662899D-05  0.47556769D-06  0.16353563D-04
  0.20941789D-04  0.22407490D-04  0.17829931D-04  0.41036541D-05  0.11223229D-03
 -0.23321897D-04 -0.15305344D-05  0.31804542D-06 -0.13209319D-04  0.27448998D-05
  0.35647747D-04 -0.48660067D-06 -0.41957863D-05 -0.19742681D-04  0.27001048D-06
  0.23239379D-05  0.10593441D-04 -0.14597968D-06 -0.12473852D-05  0.88386319D-05
 -0.45110998D-05 -0.43275320D-05 -0.36155087D-06 -0.31417410D-05  0.42853354D-07
MO    4     MO 0.0        OCC NO =    2.0000000  ORB. ENERGY =  -56.159686
 -0.72067308D-05 -0.13415998D-04 -0.22069191D-04 -0.29635220D-04 -0.27902677D-04
 -0.22929487D-05  0.21442163D-04  0.56975842D-04 -0.76807415D-07  0.12500250D-03
  0.11697154D-03  0.90598979D-04 -0.17376790D-05 -0.16260394D-05 -0.12594304D-05
 -0.14724678D-04 -0.13778671D-04 -0.10672113D-04  0.33546535D-04 -0.10570964D-03
  0.14702900D-05  0.12452420D-04 -0.93348893D-04 -0.32244096D-04  0.44705043D-06
  0.37976450D-05  0.35423283D-04  0.30313932D-04 -0.42008429D-06 -0.35703671D-05
 -0.97579475D-04  0.49797029D-04  0.47782446D-04  0.40954458D-05  0.34726805D-04
 -0.48179272D-06 -0.76273889D-05 -0.13758721D-04 -0.20283982D-04  0.40639563D-04
  0.11472063D-04  0.12482837D-04  0.63085537D-04 -0.76372571D-06 -0.76125956D-05
 -0.76277462D-05 -0.13759366D-04 -0.20284932D-04  0.40639362D-04  0.11471523D-04
  0.12482950D-04  0.63129027D-04 -0.77706989D-06 -0.72475286D-05 -0.76267746D-05
 -0.13757613D-04 -0.20282348D-04  0.40639189D-04  0.11473112D-04  0.12482506D-04
  0.63100062D-04 -0.10903371D-05 -0.74400489D-05 -0.89100644D-03 -0.16616295D-02
 -0.27962773D-02 -0.44027634D-02 -0.58400570D-02 -0.38044973D-02 -0.38110028D-02
 -0.64224286D-02 -0.13687335D-02  0.42802528D-02  0.15888179D-02  0.14946769D-03
 -0.68141350D-04 -0.60588401D-05  0.27304164D-04 -0.83109161D-04  0.35958207D-05
 -0.50213186D-07 -0.42366950D-06  0.87099290D+02  0.11648909D+03  0.13455388D+03
 -0.12104380D+01 -0.16188745D+01 -0.18699250D+01 -0.10259724D+02 -0.13721649D+02
 -0.15849563D+02  0.11199586D+03  0.52824679D+02  0.93356463D+01 -0.15564312D+01
 -0.73411621D+00 -0.12973953D+00 -0.13192376D+02 -0.62224000D+01 -0.10996778D+01
  0.99665117D-01  0.20820517D+00  0.13267327D+00 -0.13850698D-02 -0.28934766D-02
 -0.18437919D-02 -0.11739895D-01 -0.24525200D-01 -0.15628039D-01 -0.37717505D-01
  0.52417367D-03  0.44428760D-02  0.10772132D-01 -0.14970666D-03 -0.12688882D-02
 -0.11740303D-02  0.16317330D-04  0.13829380D-03  0.11015152D-03 -0.15315282D-05
 -0.12975402D-04 -0.50051344D-02 -0.37309760D-02 -0.17294794D-02 -0.40439410D-03
  0.25543061D-02  0.19040557D-02  0.88261758D-03  0.20637734D-03  0.24508283D-02
  0.18269203D-02  0.84686177D-03  0.19801676D-03  0.21047158D-03  0.15689177D-03
  0.72726569D-04  0.17005231D-04  0.17812104D-02  0.13277672D-02  0.61548129D-03
  0.14391441D-03 -0.24748029D-04 -0.18447917D-04 -0.85514597D-05 -0.19995381D-05
 -0.17625584D-03  0.89949889D-04  0.86305947D-04  0.73922237D-05  0.62725428D-04
 -0.87145994D-06  0.65949080D-04 -0.33656221D-04 -0.32292859D-04 -0.27673680D-05
 -0.23469844D-04  0.32607670D-06  0.69308131D-07  0.12942643D-06  0.22031974D-06
  0.34153252D-06  0.45990881D-06  0.34858214D-06 -0.77306893D-06 -0.18007980D-05
 -0.43925701D-06  0.40891635D-05 -0.40180662D-05  0.18129746D-05  0.19231637D-05
  0.21159562D-04  0.38230783D-05 -0.51021664D-07 -0.44953825D-06  0.29068646D-04
  0.37224270D-04  0.39829570D-04  0.31692907D-04  0.72942922D-05 -0.40818556D-06
 -0.52270785D-06 -0.55929179D-06 -0.44503575D-06 -0.10242736D-06 -0.34258348D-05
 -0.43870016D-05 -0.46940447D-05 -0.37351124D-05 -0.85965612D-06 -0.22079237D-04
  0.45880708D-05  0.31039154D-06 -0.64499437D-07  0.26022454D-05 -0.54074723D-06
 -0.89688359D-05  0.12550646D-06  0.10568391D-05  0.66402234D-05 -0.92486740D-07
 -0.78228095D-06 -0.16563934D-05  0.23217640D-07  0.19519999D-06 -0.54920843D-05
  0.28030973D-05  0.26889870D-05  0.23168564D-06  0.19549482D-05 -0.27448611D-07
MO    5     MO 0.0        OCC NO =    2.0000000  ORB. ENERGY =  -56.156531
 -0.27818359D-09 -0.51786458D-09 -0.85188236D-09 -0.11439350D-08 -0.10770580D-08
 -0.88509023D-10  0.92492416D-09  0.24576967D-08 -0.33131468D-11  0.93919897D-06
  0.87885883D-06  0.68071014D-06 -0.50353101D-04 -0.47118096D-04 -0.36494787D-04
  0.13898934D-04  0.13005978D-04  0.10073633D-04 -0.28641490D-08 -0.90497486D-06
  0.48567420D-04 -0.13406077D-04  0.51235092D-08 -0.20013375D-06  0.10732024D-04
 -0.29623887D-05  0.21323634D-07  0.12961212D-06 -0.74202762D-05  0.20493543D-05
 -0.10017253D-05  0.27395759D-04 -0.26394034D-04  0.38809633D-04 -0.15902483D-04
  0.17634851D-04  0.13452181D-05  0.24265816D-05  0.35774208D-05  0.21984371D-04
  0.73907312D-05 -0.27286105D-04  0.36038761D-04  0.67244591D-05 -0.29432630D-04
  0.39644587D-06  0.71513179D-06  0.10542928D-05  0.64889539D-05  0.21733061D-05
 -0.80542057D-05  0.12717845D-04 -0.57300723D-05  0.99168747D-05 -0.17434313D-05
 -0.31449013D-05 -0.46364135D-05 -0.28464070D-04 -0.95931420D-05  0.35320672D-04
 -0.49385519D-04  0.33026484D-04  0.10124460D-04  0.12094925D-07  0.22555712D-07
  0.37957935D-07  0.59765105D-07  0.79275579D-07  0.51643969D-07  0.53085821D-07
  0.89461990D-07  0.19065938D-07 -0.65744822D-07 -0.10272585D-07 -0.14570410D-07
  0.10561327D-07 -0.70821907D-08  0.64058269D-08  0.14678611D-07  0.14205632D-06
 -0.77201704D-05  0.21313358D-05 -0.15739907D+01 -0.21051003D+01 -0.24315532D+01
  0.84538824D+02  0.11306465D+03  0.13059839D+03 -0.23336152D+02 -0.31210439D+02
 -0.36050465D+02 -0.20238486D+01 -0.95458128D+00 -0.16870208D+00  0.10870063D+03
  0.51270431D+02  0.90609657D+01 -0.30005793D+02 -0.14152723D+02 -0.25011949D+01
 -0.17951571D-02 -0.37501685D-02 -0.23896964D-02  0.96417547D-01  0.20142084D+00
  0.12835014D+00 -0.26615163D-01 -0.55600340D-01 -0.35429856D-01  0.66857219D-03
 -0.35908643D-01  0.99122446D-02 -0.18544227D-03  0.99598485D-02 -0.27493221D-02
  0.18427047D-04 -0.98958214D-03  0.27316446D-03 -0.18662328D-05  0.10013336D-03
 -0.27640671D-04  0.23842180D-03  0.17772670D-03  0.82384518D-04  0.19263493D-04
  0.16558797D-03  0.12343420D-03  0.57217440D-04  0.13378821D-04 -0.40400977D-03
 -0.30116090D-03 -0.13960196D-03 -0.32642314D-04 -0.12802420D-01 -0.95433044D-02
 -0.44237615D-02 -0.10343824D-02  0.35073876D-02  0.26145110D-02  0.12119463D-02
  0.28338237D-03  0.14487810D-02  0.10799644D-02  0.50061329D-03  0.11705549D-03
 -0.14636594D-05  0.96893268D-06  0.49472674D-06  0.77449609D-04 -0.21589928D-04
 -0.72083111D-05 -0.70351666D-07 -0.59183749D-06  0.66218915D-06  0.40914308D-05
 -0.10192573D-05 -0.88852457D-06  0.14489838D-10  0.27058414D-10  0.46060938D-10
  0.71402172D-10  0.96150398D-10  0.72875995D-10 -0.16286959D-09 -0.37939078D-09
 -0.92542341D-10  0.85297487D-09 -0.81719266D-09  0.22266825D-09  0.12088909D-08
 -0.11283234D-07  0.16858404D-07 -0.10237683D-05  0.28308553D-06  0.80322343D-06
  0.10285792D-05  0.11005687D-05  0.87573686D-06  0.20155553D-06 -0.41646299D-04
 -0.53330762D-04 -0.57063344D-04 -0.45406045D-04 -0.10450444D-04  0.11495708D-04
  0.14720992D-04  0.15751304D-04  0.12533518D-04  0.28846562D-05 -0.64306590D-06
  0.13362925D-06  0.33356309D-04 -0.69314492D-05 -0.92074137D-05  0.19133028D-05
 -0.20527318D-06  0.10623011D-04 -0.29322799D-05  0.10776028D-06 -0.55488660D-05
  0.15316529D-05 -0.46404080D-07  0.23332047D-05 -0.64399317D-06 -0.53383861D-07
 -0.57695252D-06  0.63033638D-06  0.30157755D-05 -0.72339784D-06 -0.76722601D-06
MO    6     MO 0.0        OCC NO =    2.0000000  ORB. ENERGY =  -56.156531
 -0.19984615D-09 -0.37203216D-09 -0.61198940D-09 -0.82179905D-09 -0.77375479D-09
 -0.63584582D-10  0.66690913D-09  0.17721024D-08 -0.23889179D-11 -0.60805029D-05
 -0.56898526D-05 -0.44070108D-05 -0.13912164D-04 -0.13018358D-04 -0.10083222D-04
 -0.49987529D-04 -0.46776011D-04 -0.36229828D-04 -0.22317627D-08  0.58655469D-05
  0.13418856D-04  0.48214740D-04  0.40497781D-08  0.12960305D-05  0.29652158D-05
  0.10654371D-04  0.15729942D-07 -0.90256302D-06 -0.20502078D-05 -0.73663759D-05
  0.40470070D-05  0.10821438D-04 -0.14868445D-04  0.35157216D-05  0.31414082D-04
 -0.57077624D-04 -0.12359175D-05 -0.22294188D-05 -0.32867509D-05 -0.20175711D-04
 -0.68024770D-05  0.25042597D-04 -0.34131041D-04 -0.18250983D-04  0.19543544D-04
  0.17827682D-05  0.32158594D-05  0.47410244D-05  0.29126437D-04  0.98003350D-05
 -0.36155961D-04  0.55044210D-04  0.16886435D-04  0.21963365D-04 -0.54815088D-06
 -0.98878598D-06 -0.14577312D-05 -0.89442773D-05 -0.30194241D-05  0.11099004D-04
 -0.16801188D-04  0.10764025D-04 -0.77346431D-05  0.65547261D-08  0.12223847D-07
  0.20570931D-07  0.32389113D-07  0.42962623D-07  0.27987943D-07  0.29307836D-07
  0.49390540D-07  0.10526001D-07 -0.39029127D-07 -0.44331802D-09 -0.12693573D-07
  0.86691195D-08 -0.53776062D-08  0.46892399D-08  0.10669877D-07 -0.93373411D-06
 -0.21330946D-05 -0.76646673D-05  0.10210851D+02  0.13656285D+02  0.15774063D+02
  0.23357828D+02  0.31239429D+02  0.36083950D+02  0.83928640D+02  0.11224857D+03
  0.12965576D+03  0.13129186D+02  0.61925954D+01  0.10944104D+01  0.30033664D+02
  0.14165869D+02  0.25035181D+01  0.10791605D+03  0.50900371D+02  0.89955655D+01
  0.11645598D-01  0.24328209D-01  0.15502512D-01  0.26639884D-01  0.55651984D-01
  0.35462764D-01  0.95721626D-01  0.19996703D+00  0.12742373D+00 -0.43371497D-02
 -0.99214534D-02 -0.35649465D-01  0.12029769D-02  0.27518778D-02  0.98879624D-02
 -0.11952274D-03 -0.27341894D-03 -0.98244028D-03  0.12093061D-04  0.27666648D-04
  0.99411141D-04 -0.15456848D-02 -0.11521994D-02 -0.53409754D-03 -0.12488492D-03
  0.44311530D-04  0.33031132D-04  0.15311452D-04  0.35801878D-05  0.15013733D-02
  0.11191683D-02  0.51878609D-03  0.12130473D-03 -0.35116383D-02 -0.26176796D-02
 -0.12134151D-02 -0.28372580D-03 -0.12521790D-01 -0.93341146D-02 -0.43267924D-02
 -0.10117087D-02  0.61788049D-03  0.46058649D-03  0.21350307D-03  0.49922180D-04
  0.93045751D-05  0.50633749D-06 -0.98109126D-05  0.20740161D-04  0.75289851D-04
 -0.76386587D-05  0.50656744D-06 -0.22592004D-06 -0.28064740D-06  0.12600350D-05
  0.41279915D-05  0.86920618D-06  0.11430918D-10  0.21346167D-10  0.36337107D-10
  0.56328605D-10  0.75852283D-10  0.57491292D-10 -0.12837460D-09 -0.29903767D-09
 -0.72942325D-10  0.67429540D-09 -0.65071356D-09  0.20638540D-09  0.84159435D-09
 -0.82302000D-08 -0.12546620D-06 -0.28305500D-06 -0.10177244D-05 -0.50129383D-05
 -0.64193897D-05 -0.68686781D-05 -0.54654965D-05 -0.12579133D-05 -0.11509818D-04
 -0.14739062D-04 -0.15770639D-04 -0.12548902D-04 -0.28881971D-05 -0.41368866D-04
 -0.52975492D-04 -0.56683209D-04 -0.45103566D-04 -0.10380827D-04  0.40152589D-05
 -0.83437178D-06  0.92186870D-05 -0.19156454D-05  0.33133925D-04 -0.68852377D-05
  0.12784263D-05  0.29359235D-05  0.10552518D-04 -0.66742979D-06 -0.15336189D-05
 -0.55124873D-05  0.27991508D-06  0.64495356D-06  0.23186231D-05  0.37454918D-06
 -0.22136103D-06 -0.15318815D-06  0.96523593D-06  0.30769929D-05  0.92259269D-06
MO    7     MO 0.0        OCC NO =    2.0000000  ORB. ENERGY =  -10.079571
  0.43813367D+00  0.81562650D+00  0.13416979D+01  0.18016751D+01  0.16963451D+01
  0.13939997D+00  0.37089297D+00  0.98553207D+00 -0.13285661D-02  0.29052716D-02
  0.27186184D-02  0.21056751D-02 -0.39978262D-04 -0.37409803D-04 -0.28975338D-04
 -0.34208668D-03 -0.32010885D-03 -0.24793668D-03  0.79374167D-02 -0.15299310D-02
  0.21131228D-04  0.18017096D-03 -0.14955140D-02 -0.68859462D-04  0.95104369D-06
  0.81083925D-05 -0.72138000D-03  0.11769834D-03 -0.16229565D-05 -0.13859596D-04
 -0.12992279D-02  0.66305498D-03  0.63617288D-03  0.54679632D-04  0.46243331D-03
 -0.64425057D-05  0.52686377D-04  0.95038707D-04  0.14011211D-03 -0.12702529D-02
  0.73284615D-03  0.87583937D-04 -0.30576306D-03 -0.12060774D-02  0.19911455D-02
  0.52684747D-04  0.95035767D-04  0.14010777D-03 -0.12702894D-02  0.73285538D-03
  0.87580797D-04 -0.76755196D-03 -0.10675906D-02 -0.19452742D-02  0.52689137D-04
  0.95043685D-04  0.14011944D-03 -0.12701854D-02  0.73282758D-03  0.87589286D-04
 -0.47553891D-03  0.22951285D-02  0.13655200D-03  0.14932752D-05  0.27847949D-05
  0.46863988D-05  0.73787764D-05  0.97875973D-05  0.63761170D-05 -0.16278036D-05
 -0.27432287D-05 -0.58463073D-06  0.53659678D-04 -0.11290840D-03  0.13839601D-03
 -0.11135340D-03 -0.55258844D-04  0.22126175D-03 -0.10330253D-03  0.15889868D-04
 -0.22443684D-06 -0.18731195D-05 -0.90971914D-05 -0.12166845D-04 -0.14053644D-04
  0.15573319D-06  0.20828204D-06  0.24058182D-06  0.10823758D-05  0.14476004D-05
  0.16720902D-05  0.69392034D-03  0.32729888D-03  0.57843163D-04 -0.95410418D-05
 -0.45001884D-05 -0.79531325D-06 -0.81701999D-04 -0.38536084D-04 -0.68104389D-05
 -0.12639625D-03 -0.26404777D-03 -0.16825750D-03  0.17423833D-05  0.36399215D-05
  0.23194444D-05  0.14883515D-04  0.31092371D-04  0.19812797D-04  0.51939179D-03
 -0.71594326D-05 -0.61159664D-04 -0.18892916D-03  0.25786807D-05  0.22237402D-04
 -0.13199458D-03  0.18511938D-05  0.15554488D-04 -0.70541166D-04  0.97383119D-06
  0.83068596D-05  0.14738696D-02  0.10986662D-02  0.50928242D-03  0.11908255D-03
 -0.75219725D-03 -0.56071019D-03 -0.25991502D-03 -0.60774417D-04 -0.72167231D-03
 -0.53795600D-03 -0.24936740D-03 -0.58308129D-04 -0.61624221D-04 -0.45936527D-04
 -0.21293697D-04 -0.49789815D-05 -0.52440847D-03 -0.39090966D-03 -0.18120465D-03
 -0.42370029D-04  0.72733139D-05  0.54217444D-05  0.25132284D-05  0.58765359D-06
 -0.22546806D-03  0.11506709D-03  0.11040097D-03  0.94421262D-05  0.80229402D-04
 -0.11136087D-05  0.15144370D-03 -0.77287866D-04 -0.74155835D-04 -0.63513371D-05
 -0.53893308D-04  0.74861356D-06  0.15858438D-07  0.29614145D-07  0.50411503D-07
  0.78146277D-07  0.10523203D-06  0.79759305D-07 -0.99617020D-06 -0.23204933D-05
 -0.56602294D-06  0.86171950D-05 -0.14437883D-04  0.36938756D-04 -0.36985219D-04
  0.17768821D-03  0.27282926D-04 -0.36705403D-06 -0.32091476D-05 -0.48841380D-03
 -0.62544527D-03 -0.66921973D-03 -0.53250684D-03 -0.12255930D-03  0.65965220D-05
  0.84472704D-05  0.90384888D-05  0.71920431D-05  0.16552872D-05  0.57459042D-04
  0.73579996D-04  0.78729807D-04  0.62646332D-04  0.14418389D-04  0.26399921D-03
 -0.54859101D-04 -0.35606551D-05  0.73990500D-06 -0.31056055D-04  0.64534558D-05
  0.17431493D-03 -0.23632860D-05 -0.20510613D-04 -0.10281016D-03  0.13995333D-05
  0.12099262D-04  0.20959367D-04 -0.27984046D-06 -0.24644731D-05 -0.36924052D-04