 Single Point Energy
GAUSSIAN             31 MOL ORBITALS    210 PRIMITIVES        6 NUCLEI   B3LYP
  C    1    (CENTRE  1)   0.00035882 -0.00010569  1.59145894  CHARGE =  6.0
  H    2    (CENTRE  2)  -1.07036471 -1.71792969  1.47430993  CHARGE =  1.0
  H    3    (CENTRE  3)  -0.95189748  1.78610325  1.47427678  CHARGE =  1.0
  H    4    (CENTRE  4)   2.02341448 -0.06850985  1.47439366  CHARGE =  1.0
  Br   5    (CENTRE  5)  -0.00004433  0.00001300 -3.28608670  CHARGE = 35.0
  Cl   6    (CENTRE  6)  -0.00010317  0.00003033  5.94360592  CHARGE = 17.0
CENTRE ASSIGNMENTS    1  1  1  1  1  1  1  1  1  1  1  1  1  1  1  1  1  1  1  1
CENTRE ASSIGNMENTS    1  1  1  1  1  1  1  1  1  1  1  1  1  1  1  1  2  2  2  2
CENTRE ASSIGNMENTS    2  2  2  2  2  3  3  3  3  3  3  3  3  3  4  4  4  4  4  4
CENTRE ASSIGNMENTS    4  4  4  5  5  5  5  5  5  5  5  5  5  5  5  5  5  5  5  5
CENTRE ASSIGNMENTS    5  5  5  5  5  5  5  5  5  5  5  5  5  5  5  5  5  5  5  5
CENTRE ASSIGNMENTS    5  5  5  5  5  5  5  5  5  5  5  5  5  5  5  5  5  5  5  5
CENTRE ASSIGNMENTS    5  5  5  5  5  5  5  5  5  5  5  5  5  5  5  5  5  5  5  5
CENTRE ASSIGNMENTS    5  5  5  5  5  5  5  5  5  5  5  5  5  5  5  5  5  6  6  6
CENTRE ASSIGNMENTS    6  6  6  6  6  6  6  6  6  6  6  6  6  6  6  6  6  6  6  6
CENTRE ASSIGNMENTS    6  6  6  6  6  6  6  6  6  6  6  6  6  6  6  6  6  6  6  6
CENTRE ASSIGNMENTS    6  6  6  6  6  6  6  6  6  6
TYPE ASSIGNMENTS      1  1  1  1  1  1  1  1  1  2  2  2  3  3  3  4  4  4  1  2
TYPE ASSIGNMENTS      3  4  1  2  3  4  1  2  3  4  5  6  7  8  9 10  1  1  1  1
TYPE ASSIGNMENTS      1  1  2  3  4  1  1  1  1  1  1  2  3  4  1  1  1  1  1  1
TYPE ASSIGNMENTS      2  3  4  1  1  1  1  1  1  1  1  1  1  1  1  1  1  1  1  2
TYPE ASSIGNMENTS      3  4  2  2  2  3  3  3  4  4  4  2  2  2  3  3  3  4  4  4
TYPE ASSIGNMENTS      2  2  2  3  3  3  4  4  4  2  3  4  2  3  4  2  3  4  2  3
TYPE ASSIGNMENTS      4  5  5  5  5  6  6  6  6  7  7  7  7  8  8  8  8  9  9  9
TYPE ASSIGNMENTS      9 10 10 10 10  5  6  7  8  9 10  5  6  7  8  9 10  1  1  1
TYPE ASSIGNMENTS      1  1  1  1  1  1  1  1  1  1  1  2  3  4  2  2  2  2  2  3
TYPE ASSIGNMENTS      3  3  3  3  4  4  4  4  4  2  2  3  3  4  4  2  3  4  2  3
TYPE ASSIGNMENTS      4  2  3  4  5  6  7  8  9 10
EXPONENTS  0.4563240D+04 0.6820240D+03 0.1549730D+03 0.4445530D+02 0.1302900D+02
EXPONENTS  0.1827730D+01 0.2096420D+02 0.4803310D+01 0.1459330D+01 0.2096420D+02
EXPONENTS  0.4803310D+01 0.1459330D+01 0.2096420D+02 0.4803310D+01 0.1459330D+01
EXPONENTS  0.2096420D+02 0.4803310D+01 0.1459330D+01 0.4834560D+00 0.4834560D+00
EXPONENTS  0.4834560D+00 0.4834560D+00 0.1455850D+00 0.1455850D+00 0.1455850D+00
EXPONENTS  0.1455850D+00 0.4380000D-01 0.4380000D-01 0.4380000D-01 0.4380000D-01
EXPONENTS  0.6260000D+00 0.6260000D+00 0.6260000D+00 0.6260000D+00 0.6260000D+00
EXPONENTS  0.6260000D+00 0.3386500D+02 0.5094790D+01 0.1158790D+01 0.3258400D+00
EXPONENTS  0.1027410D+00 0.3600000D-01 0.7500000D+00 0.7500000D+00 0.7500000D+00
EXPONENTS  0.3386500D+02 0.5094790D+01 0.1158790D+01 0.3258400D+00 0.1027410D+00
EXPONENTS  0.3600000D-01 0.7500000D+00 0.7500000D+00 0.7500000D+00 0.3386500D+02
EXPONENTS  0.5094790D+01 0.1158790D+01 0.3258400D+00 0.1027410D+00 0.3600000D-01
EXPONENTS  0.7500000D+00 0.7500000D+00 0.7500000D+00 0.4397000D+06 0.6603000D+05
EXPONENTS  0.1514000D+05 0.4317000D+04 0.1414000D+04 0.5239000D+03 0.5239000D+03
EXPONENTS  0.2077000D+03 0.8654000D+02 0.3052000D+02 0.1298000D+02 0.4412000D+01
EXPONENTS  0.1862000D+01 0.3932000D+00 0.1400000D+00 0.3500000D-01 0.3500000D-01
EXPONENTS  0.3500000D-01 0.3500000D-01 0.2957000D+04 0.7003000D+03 0.2246000D+03
EXPONENTS  0.2957000D+04 0.7003000D+03 0.2246000D+03 0.2957000D+04 0.7003000D+03
EXPONENTS  0.2246000D+03 0.8259000D+02 0.3319000D+02 0.1420000D+02 0.8259000D+02
EXPONENTS  0.3319000D+02 0.1420000D+02 0.8259000D+02 0.3319000D+02 0.1420000D+02
EXPONENTS  0.1420000D+02 0.7438000D+01 0.3526000D+01 0.1420000D+02 0.7438000D+01
EXPONENTS  0.3526000D+01 0.1420000D+02 0.7438000D+01 0.3526000D+01 0.1595000D+01
EXPONENTS  0.1595000D+01 0.1595000D+01 0.8462000D+00 0.8462000D+00 0.8462000D+00
EXPONENTS  0.3186000D+00 0.3186000D+00 0.3186000D+00 0.1096000D+00 0.1096000D+00
EXPONENTS  0.1096000D+00 0.1348000D+03 0.3639000D+02 0.1216000D+02 0.4341000D+01
EXPONENTS  0.1348000D+03 0.3639000D+02 0.1216000D+02 0.4341000D+01 0.1348000D+03
EXPONENTS  0.3639000D+02 0.1216000D+02 0.4341000D+01 0.1348000D+03 0.3639000D+02
EXPONENTS  0.1216000D+02 0.4341000D+01 0.1348000D+03 0.3639000D+02 0.1216000D+02
EXPONENTS  0.4341000D+01 0.1348000D+03 0.3639000D+02 0.1216000D+02 0.4341000D+01
EXPONENTS  0.1535000D+01 0.1535000D+01 0.1535000D+01 0.1535000D+01 0.1535000D+01
EXPONENTS  0.1535000D+01 0.4510000D+00 0.4510000D+00 0.4510000D+00 0.4510000D+00
EXPONENTS  0.4510000D+00 0.4510000D+00 0.1058190D+06 0.1587200D+05 0.3619650D+04
EXPONENTS  0.1030800D+04 0.3399080D+03 0.1245380D+03 0.1245380D+03 0.4951350D+02
EXPONENTS  0.2080560D+02 0.6583460D+01 0.2564680D+01 0.5597630D+00 0.1832730D+00
EXPONENTS  0.4830000D-01 0.4830000D-01 0.4830000D-01 0.4830000D-01 0.5897760D+03
EXPONENTS  0.1398490D+03 0.4514130D+02 0.1687330D+02 0.2771520D+01 0.5897760D+03
EXPONENTS  0.1398490D+03 0.4514130D+02 0.1687330D+02 0.2771520D+01 0.5897760D+03
EXPONENTS  0.1398490D+03 0.4514130D+02 0.1687330D+02 0.2771520D+01 0.6741100D+01
EXPONENTS  0.2771520D+01 0.6741100D+01 0.2771520D+01 0.6741100D+01 0.2771520D+01
EXPONENTS  0.1023870D+01 0.1023870D+01 0.1023870D+01 0.3813680D+00 0.3813680D+00
EXPONENTS  0.3813680D+00 0.1094370D+00 0.1094370D+00 0.1094370D+00 0.7500000D+00
EXPONENTS  0.7500000D+00 0.7500000D+00 0.7500000D+00 0.7500000D+00 0.7500000D+00
MO    1     MO 0.0        OCC NO =    2.0000000  ORB. ENERGY = -482.603010
 -0.27149422D-06 -0.50541170D-06 -0.83139749D-06 -0.11164273D-05 -0.10511584D-05
 -0.86380682D-07  0.67782120D-06  0.18010978D-05 -0.24280057D-08  0.74537719D-10
  0.69748940D-10  0.54023250D-10 -0.17185210D-10 -0.16081122D-10 -0.12455451D-10
  0.59141036D-06  0.55341439D-06  0.42864083D-06 -0.25278812D-05  0.44027126D-09
 -0.14007051D-09  0.57417626D-06  0.29526406D-05  0.23222121D-09 -0.63668951D-10
 -0.22244855D-05  0.30884877D-05  0.35014614D-10 -0.70924921D-11 -0.26000478D-05
 -0.11166979D-05 -0.11173831D-05  0.22340810D-05  0.13574955D-09  0.12600008D-09
 -0.34329794D-10 -0.95362462D-07 -0.17202028D-06 -0.25360323D-06  0.11270302D-06
 -0.20778512D-05 -0.11076950D-05  0.42939229D-06  0.68942254D-06  0.67013039D-06
 -0.95402508D-07 -0.17209251D-06 -0.25370973D-06  0.11299101D-06 -0.20777804D-05
 -0.11078161D-05  0.38208710D-06 -0.71714654D-06  0.66959300D-06 -0.95247623D-07
 -0.17181312D-06 -0.25329783D-06  0.11189755D-06 -0.20781000D-05 -0.11073924D-05
 -0.81071921D-06  0.27481798D-07  0.67163470D-06  0.38584358D+01  0.71955607D+01
  0.12109067D+02  0.19065833D+02  0.25289924D+02  0.16475087D+02  0.96359558D+01
  0.16238833D+02  0.34607836D+01  0.81724723D-01 -0.11310834D-01  0.24860454D-02
 -0.64310295D-03  0.71548670D-04 -0.22393589D-04 -0.85703805D-06 -0.71976456D-10
  0.21350578D-10 -0.66059164D-07  0.88968700D-07  0.11898929D-06  0.13744181D-06
 -0.24654546D-07 -0.32973697D-07 -0.38087164D-07  0.58773188D-03  0.78604946D-03
  0.90794778D-03  0.11674545D-07  0.55064899D-08  0.97315579D-09 -0.36037333D-08
 -0.16997598D-08 -0.30039663D-09  0.83521955D-04  0.39394497D-04  0.69621451D-05
 -0.67306423D-09 -0.14060632D-08 -0.89597681D-09  0.20029714D-09  0.41843025D-09
  0.26663368D-09 -0.35438350D-05 -0.74032397D-05 -0.47175200D-05  0.21596566D-08
 -0.63968310D-09  0.10966819D-04 -0.16502672D-08  0.48756465D-09 -0.86129136D-05
  0.70779072D-09 -0.20850960D-09  0.41338619D-05 -0.41393592D-09  0.12182650D-09
 -0.29435324D-05  0.35015636D-04  0.26101696D-04  0.12099339D-04  0.28291181D-05
  0.35016870D-04  0.26102616D-04  0.12099766D-04  0.28292178D-05 -0.70032505D-04
 -0.52204312D-04 -0.24199105D-04 -0.56583359D-05 -0.22747882D-09 -0.16956947D-09
 -0.78603267D-10 -0.18379345D-10 -0.42636235D-07 -0.31782317D-07 -0.14732569D-07
 -0.34448309D-08  0.12686455D-07  0.94568608D-08  0.43836909D-08  0.10250129D-08
 -0.33253171D-05 -0.33254561D-05  0.66507732D-05  0.27174877D-10  0.38492423D-08
 -0.11389958D-08  0.86108134D-06  0.86112027D-06 -0.17222016D-05 -0.76579211D-11
 -0.97252094D-09  0.28746194D-09  0.16576171D-06  0.30954443D-06  0.52693063D-06
  0.81683077D-06  0.10999470D-05  0.83369109D-06 -0.60279061D-06 -0.14041492D-05
 -0.34250504D-06  0.22262339D-05 -0.20876917D-05  0.13919384D-05 -0.16303970D-05
  0.69547544D-05  0.19914670D-09 -0.58726903D-10 -0.88081224D-06 -0.19389915D-08
 -0.24830033D-08 -0.26567869D-08 -0.21140399D-08 -0.48655760D-09  0.58164039D-09
  0.74482790D-09  0.79695787D-09  0.63414974D-09  0.14595296D-09  0.67977403D-05
  0.87049434D-05  0.93141961D-05  0.74114270D-05  0.17057796D-05  0.17326991D-08
 -0.36005529D-09 -0.51964326D-09  0.10798200D-09 -0.60667941D-05  0.12606813D-05
  0.41821437D-09 -0.12562250D-09 -0.14647987D-05 -0.18917198D-09  0.57060000D-10
  0.73094090D-06  0.98406270D-10 -0.29887864D-10 -0.98148493D-06 -0.51422747D-06
 -0.51420278D-06  0.10284303D-05 -0.43849617D-11 -0.65109933D-09  0.19368677D-09
MO    2     MO 0.0        OCC NO =    2.0000000  ORB. ENERGY = -101.336674
 -0.65802680D-06 -0.12249780D-05 -0.20150772D-05 -0.27059105D-05 -0.25477168D-05
 -0.20936285D-06  0.18090299D-05  0.48069311D-05 -0.64800789D-08  0.61115819D-09
  0.57189349D-09  0.44295361D-09 -0.19478266D-09 -0.18226858D-09 -0.14117406D-09
  0.23235804D-05  0.21742988D-05  0.16840785D-05 -0.15910704D-04  0.20475813D-08
 -0.54951646D-09 -0.10996659D-04  0.30251863D-04 -0.12362975D-08  0.39627429D-09
  0.22365488D-04 -0.37973024D-04  0.12122114D-08 -0.35717592D-09 -0.16767275D-04
 -0.62634471D-05 -0.62653360D-05  0.12528783D-04  0.37895042D-09 -0.52031189D-08
  0.15461159D-08  0.17506305D-05  0.31578877D-05  0.46555589D-05 -0.14960671D-04
  0.16806162D-05 -0.19885999D-05 -0.93442705D-06 -0.15006484D-05 -0.11945864D-04
  0.17505460D-05  0.31577352D-05  0.46553341D-05 -0.14960390D-04  0.16809599D-05
 -0.19891588D-05 -0.83042957D-06  0.15588540D-05 -0.11944882D-04  0.17509271D-05
  0.31584227D-05  0.46563475D-05 -0.14961723D-04  0.16794916D-05 -0.19869527D-05
  0.17713943D-05 -0.60137335D-07 -0.11948922D-04  0.83571964D-07  0.15585257D-06
  0.26227687D-06  0.41295726D-06  0.54776824D-06  0.35684288D-06 -0.28901679D-05
 -0.48706071D-05 -0.10380128D-05  0.17565142D-04 -0.24727132D-04  0.23273423D-04
 -0.15750522D-04  0.79113707D-05 -0.84844964D-05 -0.97588485D-05 -0.52330391D-09
  0.15384285D-09 -0.11880622D-05 -0.48194787D-08 -0.64457090D-08 -0.74452912D-08
  0.14340782D-08  0.19179773D-08  0.22154118D-08 -0.17420233D-04 -0.23298319D-04
 -0.26911356D-04  0.15335119D-07  0.72330599D-08  0.12782906D-08 -0.45637316D-08
 -0.21525587D-08 -0.38041928D-09  0.54347725D-04  0.25633994D-04  0.45302669D-05
 -0.18863774D-08 -0.39407321D-08 -0.25111280D-08  0.56124694D-09  0.11724715D-08
  0.74712668D-09 -0.67222193D-05 -0.14043036D-04 -0.89485555D-05  0.69676789D-08
 -0.20717547D-08  0.25180210D-04 -0.53514827D-08  0.15905081D-08 -0.19491121D-04
  0.18894585D-08 -0.56117430D-09  0.62963303D-05 -0.63100731D-09  0.18659234D-09
 -0.20519074D-06 -0.12905518D-03 -0.96201569D-04 -0.44593861D-04 -0.10427123D-04
 -0.12904963D-03 -0.96197433D-04 -0.44591944D-04 -0.10426675D-04  0.25810481D-03
  0.19239900D-03  0.89185805D-04  0.20853798D-04 -0.11652386D-08 -0.86860352D-09
 -0.40263777D-09 -0.94146448D-10  0.23595558D-07  0.17588831D-07  0.81532337D-08
  0.19064232D-08 -0.70208896D-08 -0.52335798D-08 -0.24260055D-08 -0.56725875D-09
  0.10413175D-04  0.10412756D-04 -0.20825931D-04  0.88050708D-10 -0.20482146D-08
  0.60967490D-09 -0.29571478D-05 -0.29570604D-05  0.59142082D-05 -0.18484350D-10
  0.71963190D-09 -0.21431881D-09  0.12702098D+01  0.23719977D+01  0.40377990D+01
  0.62592651D+01  0.84287468D+01  0.63884635D+01  0.23318194D+01  0.54317739D+01
  0.13249375D+01  0.43889641D-01 -0.56848366D-02  0.66698291D-03 -0.19592794D-03
  0.79298466D-04  0.16277164D-08 -0.47992393D-09 -0.14821950D-04  0.63540198D-07
  0.81367308D-07  0.87062147D-07  0.69276483D-07  0.15944354D-07 -0.20086563D-07
 -0.25722135D-07 -0.27522409D-07 -0.21899939D-07 -0.50403882D-08 -0.34316191D-03
 -0.43944088D-03 -0.47019703D-03 -0.37414189D-03 -0.86110760D-04 -0.10143150D-07
  0.21077491D-08  0.34797617D-08 -0.72309534D-09  0.54438228D-04 -0.11312277D-04
 -0.44502222D-08  0.14396975D-08  0.23530163D-04  0.99589520D-09 -0.31583937D-09
 -0.68522739D-05 -0.16937274D-08  0.49927265D-09  0.15676920D-04  0.82565432D-05
  0.82566022D-05 -0.16513145D-04 -0.13310003D-10  0.54632859D-08 -0.15951688D-08
MO    3     MO 0.0        OCC NO =    2.0000000  ORB. ENERGY =  -62.256106
 -0.27395360D-05 -0.50999006D-05 -0.83892886D-05 -0.11265407D-04 -0.10606805D-04
 -0.87163177D-06  0.81752557D-05  0.21723185D-04 -0.29284371D-07  0.95820499D-09
  0.89664379D-09  0.69448527D-09 -0.21546337D-09 -0.20162063D-09 -0.15616297D-09
  0.86513158D-05  0.80955001D-05  0.62702777D-05 -0.35046102D-04  0.60963590D-08
 -0.19413564D-08  0.78882605D-05  0.41465203D-04  0.32843382D-08 -0.90119018D-09
 -0.31236882D-04  0.44378269D-04  0.49847857D-09 -0.10073735D-09 -0.36907233D-04
 -0.15543847D-04 -0.15553465D-04  0.31097312D-04  0.19056197D-08  0.18487029D-08
 -0.50472996D-09 -0.13671731D-05 -0.24661852D-05 -0.36358071D-05  0.17027699D-05
 -0.29600802D-04 -0.15856575D-04  0.59538167D-05  0.95593084D-05  0.92098239D-05
 -0.13677245D-05 -0.24671799D-05 -0.36372735D-05  0.17067934D-05 -0.29599781D-04
 -0.15858305D-04  0.52979128D-05 -0.99437475D-05  0.92023003D-05 -0.13655942D-05
 -0.24633371D-05 -0.36316082D-05  0.16915307D-05 -0.29604386D-04 -0.15852251D-04
 -0.11241090D-04  0.38105105D-06  0.92308856D-05 -0.12742138D+01 -0.23762694D+01
 -0.39989107D+01 -0.62963203D+01 -0.83517705D+01 -0.54407496D+01 -0.53839996D+01
 -0.90732951D+01 -0.19336803D+01  0.58199381D+01  0.24291424D+01  0.10315439D+00
 -0.10970027D-01  0.10362047D-02 -0.32073685D-03 -0.11968470D-04 -0.10270840D-08
  0.30444657D-09 -0.94209244D-06  0.13959396D-05  0.18669696D-05  0.21564939D-05
 -0.48382815D-06 -0.64708563D-06 -0.74743383D-06  0.14425583D-01  0.19293189D-01
  0.22285121D-01  0.19829193D-05  0.93527631D-06  0.16529033D-06 -0.68400333D-06
 -0.32262136D-06 -0.57016510D-07  0.20220553D-01  0.95373547D-02  0.16855260D-02
 -0.23393757D-08 -0.48870670D-08 -0.31141550D-08  0.41344052D-09  0.86369689D-09
  0.55036815D-09  0.16877369D-04  0.35257626D-04  0.22466996D-04  0.25295659D-07
 -0.76011817D-08  0.10585913D-03 -0.21153026D-07  0.63801749D-08 -0.10494060D-03
  0.96793437D-08 -0.28746929D-08  0.56577227D-04 -0.58164746D-08  0.17145752D-08
 -0.41442591D-04 -0.89252466D-03 -0.66531442D-03 -0.30840390D-03 -0.72112290D-04
 -0.89261411D-03 -0.66538109D-03 -0.30843481D-03 -0.72119517D-04  0.17851388D-02
  0.13306955D-02  0.61683871D-03  0.14423181D-03  0.24647469D-07  0.18372956D-07
  0.85167122D-08  0.19914133D-08  0.61506889D-06  0.45849064D-06  0.21253154D-06
  0.49695015D-07 -0.16893559D-06 -0.12592961D-06 -0.58374178D-07 -0.13649295D-07
 -0.34428391D-04 -0.34428549D-04  0.68856939D-04 -0.25818084D-10  0.43530247D-07
 -0.13126486D-07  0.11356432D-04  0.11356872D-04 -0.22713304D-04 -0.89236813D-10
 -0.13033547D-07  0.38691045D-08  0.49441370D-06  0.92327120D-06  0.15716641D-05
  0.24363427D-05  0.32807870D-05  0.24866316D-05 -0.50816452D-05 -0.11837258D-04
 -0.28873859D-05  0.26738952D-04 -0.27138582D-04  0.19352096D-04 -0.23176171D-04
  0.98683432D-04  0.28286667D-08 -0.83418914D-09 -0.12508551D-04 -0.22047678D-07
 -0.28233469D-07 -0.30209509D-07 -0.24038099D-07 -0.55324973D-08  0.66148418D-08
  0.84707301D-08  0.90635904D-08  0.72120168D-08  0.16598843D-08  0.77423700D-04
  0.99146025D-04  0.10608518D-03  0.84413360D-04  0.19428187D-04  0.18117074D-07
 -0.37647324D-08 -0.54336354D-08  0.11291108D-08 -0.63779784D-04  0.13253455D-04
  0.52782924D-08 -0.15859116D-08 -0.18553917D-04 -0.25655150D-08  0.77399644D-09
  0.10038505D-04  0.13724602D-08 -0.41690992D-09 -0.13834106D-04 -0.71823134D-05
 -0.71819672D-05  0.14364281D-04 -0.61572427D-10 -0.90693806D-08  0.26972843D-08
MO    4     MO 0.0        OCC NO =    2.0000000  ORB. ENERGY =  -56.074675
 -0.15732098D-06 -0.29286761D-06 -0.48176447D-06 -0.64692883D-06 -0.60910788D-06
 -0.50054449D-07  0.46565190D-06  0.12373243D-05 -0.16679996D-08  0.10535682D-07
  0.98588024D-08  0.76360235D-08 -0.32671919D-08 -0.30572866D-08 -0.23679866D-08
  0.30915238D-04  0.28929045D-04  0.22406664D-04 -0.21024775D-04 -0.20236314D-08
  0.95413262D-09  0.26008616D-04  0.74103974D-04 -0.42981519D-08  0.14527080D-08
 -0.32607848D-04  0.17203030D-04  0.78103062D-09 -0.23904502D-09  0.46619874D-04
 -0.14821013D-06 -0.13791927D-06  0.28612939D-06 -0.18527167D-08  0.19797361D-07
 -0.62939229D-08  0.10526008D-04  0.18987416D-04  0.27992456D-04 -0.74697486D-04
  0.35181396D-05 -0.83197710D-05 -0.27957129D-04 -0.44867596D-04  0.66431937D-04
  0.10524985D-04  0.18985572D-04  0.27989737D-04 -0.74701964D-04  0.35192836D-05
 -0.83203981D-05 -0.24865216D-04  0.46652762D-04  0.66432783D-04  0.10528901D-04
  0.18992636D-04  0.28000152D-04 -0.74686698D-04  0.35144079D-05 -0.83176599D-05
  0.52834584D-04 -0.17886576D-05  0.66429901D-04  0.22807585D-03  0.42533651D-03
  0.71577859D-03  0.11269997D-02  0.14949117D-02  0.97385823D-03  0.98214250D-03
  0.16551392D-02  0.35273954D-03 -0.11360114D-02 -0.34870195D-03 -0.96679074D-04
  0.58798878D-04 -0.20036562D-04  0.13693048D-04  0.71101647D-04  0.21886683D-09
 -0.77957784D-10  0.28366984D-05  0.13090231D-01  0.17507251D-01  0.20222225D-01
 -0.37142310D-02 -0.49675191D-02 -0.57378678D-02  0.87711786D+02  0.11730826D+03
  0.13550009D+03  0.16831846D-01  0.79390155D-02  0.14030533D-02 -0.47758792D-02
 -0.22526215D-02 -0.39810327D-03  0.11278239D+03  0.53195658D+02  0.94012089D+01
  0.14952514D-04  0.31236513D-04  0.19904647D-04 -0.42424649D-05 -0.88627109D-05
 -0.56475296D-05  0.10021951D+00  0.20936332D+00  0.13341127D+00 -0.56017637D-05
  0.15888392D-05 -0.37645474D-01  0.15685778D-05 -0.44480372D-06  0.10599253D-01
 -0.16047634D-06  0.45521313D-07 -0.11078084D-02  0.17322458D-07 -0.49230311D-08
  0.12101616D-03 -0.64281521D-03 -0.47917357D-03 -0.22211904D-03 -0.51936803D-04
 -0.64278129D-03 -0.47914829D-03 -0.22210732D-03 -0.51934062D-04  0.12855965D-02
  0.95832186D-03  0.44422635D-03  0.10387086D-03 -0.81233294D-08 -0.60553712D-08
 -0.28069437D-08 -0.65633132D-09  0.61241739D-06  0.45651413D-06  0.21161534D-06
  0.49480784D-07 -0.19262768D-06 -0.14359040D-06 -0.66560769D-07 -0.15563518D-07
 -0.25833493D-04 -0.25836390D-04  0.51669883D-04  0.71221267D-09  0.62252546D-08
 -0.19376692D-08  0.96931541D-05  0.96939066D-05 -0.19387061D-04 -0.16694435D-09
 -0.30385406D-08  0.89249039D-09 -0.35197333D-06 -0.65727716D-06 -0.11188683D-05
 -0.17344334D-05 -0.23355937D-05 -0.17702341D-05  0.39232590D-05  0.91388965D-05
  0.22291920D-05 -0.21161551D-04  0.21790491D-04 -0.16992632D-04  0.18355513D-04
 -0.96244019D-04 -0.38537822D-08  0.11361774D-08  0.12916140D-04  0.22585143D-08
  0.28921727D-08  0.30945938D-08  0.24624085D-08  0.56673651D-09 -0.71007216D-09
 -0.90929304D-09 -0.97293380D-09 -0.77417608D-09 -0.17818077D-09 -0.45249793D-04
 -0.57945269D-04 -0.62000816D-04 -0.49334856D-04 -0.11354681D-04 -0.16945732D-08
  0.35213273D-09  0.53550743D-09 -0.11127857D-09  0.36312447D-04 -0.75457353D-05
 -0.74209950D-09  0.22790765D-09  0.11676449D-04  0.52996302D-09 -0.15320791D-09
 -0.71153953D-05  0.52564486D-09 -0.16901714D-09  0.30687961D-05 -0.13428078D-05
 -0.13425392D-05  0.26853470D-05 -0.51427656D-10  0.12862510D-08 -0.30093179D-09
MO    5     MO 0.0        OCC NO =    2.0000000  ORB. ENERGY =  -56.073428
  0.75916353D-09  0.14132534D-08  0.23247885D-08  0.31218008D-08  0.29392931D-08
  0.24154128D-09 -0.24380896D-08 -0.64784607D-08  0.87334176D-11  0.55452727D-05
  0.51890090D-05  0.40190880D-05  0.63612555D-06  0.59525678D-06  0.46104938D-06
 -0.27193660D-08 -0.25446565D-08 -0.19709348D-08  0.77262765D-08 -0.32280055D-06
 -0.37300278D-07 -0.12277546D-08 -0.87416806D-08  0.10959518D-04  0.12569444D-05
  0.31665551D-08  0.12400192D-07 -0.41805235D-05 -0.47943804D-06  0.68130876D-08
  0.67439074D-05 -0.67405701D-05 -0.33373149D-08 -0.29525683D-05 -0.73720806D-05
 -0.84548053D-06  0.18906129D-06  0.34103960D-06  0.50278226D-06  0.58577782D-05
  0.10853927D-04 -0.17301364D-04 -0.36551918D-05  0.12060179D-04 -0.14924953D-04
  0.11146490D-06  0.20106678D-06  0.29642543D-06  0.34547108D-05  0.64001793D-05
 -0.10201694D-04 -0.76401681D-05 -0.96194411D-05 -0.88013391D-05 -0.30048837D-06
 -0.54203814D-06 -0.79910710D-06 -0.93049608D-05 -0.17246565D-04  0.27493904D-04
  0.13130697D-04 -0.22304909D-05  0.23712421D-04 -0.11962274D-07 -0.22308333D-07
 -0.37541632D-07 -0.59109632D-07 -0.78406126D-07 -0.51077565D-07 -0.48950977D-07
 -0.82493813D-07 -0.17580896D-07  0.50352373D-07  0.29018020D-07 -0.71449553D-08
  0.60193224D-08 -0.48185475D-08  0.51712322D-08  0.10211232D-07 -0.84546350D-05
 -0.96958395D-06  0.25691815D-08  0.87142513D+02  0.11654690D+03  0.13462066D+03
  0.99934578D+01  0.13365537D+02  0.15438226D+02 -0.12582100D-01 -0.16827662D-01
 -0.19437248D-01  0.11204955D+03  0.52850005D+02  0.93401220D+01  0.12849784D+02
  0.60608109D+01  0.10711203D+01 -0.16178273D-01 -0.76307469D-02 -0.13485733D-02
  0.99404960D-01  0.20766169D+00  0.13232695D+00  0.11399708D-01  0.23814533D-01
  0.15175185D-01 -0.14356577D-04 -0.29991572D-04 -0.19111341D-04 -0.36993654D-01
 -0.42424115D-02  0.53551814D-05  0.10241846D-01  0.11745287D-02 -0.14888083D-05
 -0.10116068D-02 -0.11601047D-03  0.14827252D-06  0.10203963D-03  0.11701861D-04
 -0.12931864D-07  0.14907913D-05  0.11112802D-05  0.51512957D-06  0.12044975D-06
 -0.11766368D-05 -0.87710002D-06 -0.40657629D-06 -0.95067369D-07 -0.31415454D-06
 -0.23418013D-06 -0.10855329D-06 -0.25382383D-07 -0.60144106D-06 -0.44833205D-06
 -0.20782257D-06 -0.48593943D-07  0.35659980D-02  0.26582009D-02  0.12321987D-02
  0.28811785D-03  0.40894527D-03  0.30483997D-03  0.14130738D-03  0.33041082D-04
  0.10205044D-06 -0.94976532D-07 -0.70739063D-08 -0.42380678D-07 -0.33671102D-04
 -0.38612484D-05 -0.43315446D-07  0.40951164D-07  0.23642814D-08  0.18433415D-07
  0.21111483D-05  0.24209478D-06 -0.46927939D-10 -0.87633523D-10 -0.14917660D-09
 -0.23124873D-09 -0.31140030D-09 -0.23602197D-09  0.52190270D-09  0.12157277D-08
  0.29654461D-09 -0.28458819D-08  0.29981729D-08 -0.26372386D-08  0.39683101D-08
 -0.19616805D-07 -0.72840104D-06 -0.83551081D-07  0.29405602D-08 -0.41067328D-04
 -0.52589353D-04 -0.56270044D-04 -0.44774806D-04 -0.10305161D-04 -0.47100119D-05
 -0.60314730D-05 -0.64536114D-05 -0.51352226D-05 -0.11818990D-05 -0.33952904D-07
 -0.43478875D-07 -0.46521931D-07 -0.37018105D-07 -0.85199152D-08  0.32970005D-04
 -0.68511751D-05  0.37813315D-05 -0.78576161D-06  0.27177636D-07 -0.56475194D-08
  0.10386416D-04  0.11912167D-05  0.87120563D-08 -0.53044129D-05 -0.60836236D-06
 -0.47342027D-08  0.21061894D-05  0.24156492D-06  0.29410954D-08  0.42687100D-07
 -0.40657726D-07 -0.20293744D-08 -0.18261533D-07 -0.17007733D-05 -0.19503420D-06
MO    6     MO 0.0        OCC NO =    2.0000000  ORB. ENERGY =  -56.073428
 -0.32386472D-09 -0.60290425D-09 -0.99177182D-09 -0.13317831D-08 -0.12539240D-08
 -0.10304328D-09  0.10412838D-08  0.27668860D-08 -0.37299557D-11 -0.63721080D-06
 -0.59627231D-06 -0.46183596D-06  0.55581961D-05  0.52011021D-05  0.40284546D-05
  0.11353491D-08  0.10624070D-08  0.82287529D-09 -0.32834370D-08  0.38981905D-07
 -0.34241093D-06  0.43657209D-09  0.37447802D-08 -0.12571231D-05  0.10963050D-04
 -0.12972012D-08 -0.53142819D-08  0.47941251D-06 -0.41805995D-05 -0.29890484D-08
 -0.14758838D-05  0.14745001D-05  0.13837220D-08 -0.13473067D-04  0.84540946D-06
 -0.73724088D-05  0.23854457D-06  0.43030037D-06  0.63437616D-06  0.73600917D-05
  0.13656971D-04 -0.21765924D-04  0.11911693D-04  0.48683915D-05 -0.18770523D-04
 -0.28351154D-06 -0.51141437D-06 -0.75395958D-06 -0.87485102D-05 -0.16231361D-04
  0.25868016D-04 -0.97512823D-05  0.88494249D-05  0.22309735D-04  0.44902283D-07
  0.80997312D-07  0.11941139D-06  0.13853780D-05  0.25710791D-05 -0.40981073D-05
 -0.23689746D-05 -0.11901172D-04 -0.35335939D-05  0.34218739D-08  0.63814206D-08
  0.10738989D-07  0.16908634D-07  0.22428501D-07  0.14611017D-07  0.13821430D-07
  0.23292334D-07  0.49640098D-08 -0.13372182D-07 -0.96173500D-08  0.33774634D-08
 -0.27852459D-08  0.21430994D-08 -0.22531261D-08 -0.45036726D-08  0.96962458D-06
 -0.84551791D-05 -0.11025356D-08 -0.99934571D+01 -0.13365536D+02 -0.15438225D+02
  0.87142514D+02  0.11654690D+03  0.13462066D+03  0.51815652D-02  0.69299738D-02
  0.80046544D-02 -0.12849783D+02 -0.60608105D+01 -0.10711202D+01  0.11204955D+03
  0.52850005D+02  0.93401221D+01  0.66625422D-02  0.31424970D-02  0.55536997D-03
 -0.11399709D-01 -0.23814533D-01 -0.15175186D-01  0.99404963D-01  0.20766169D+00
  0.13232696D+00  0.59125044D-05  0.12351503D-04  0.78706706D-05  0.42424153D-02
 -0.36993666D-01 -0.22059717D-05 -0.11745312D-02  0.10241855D-01  0.61335118D-06
  0.11601096D-03 -0.10116099D-02 -0.61031195D-07 -0.11701972D-04  0.10204077D-03
  0.52749909D-08 -0.29126716D-06 -0.21711920D-06 -0.10064476D-06 -0.23533178D-07
  0.14156535D-06  0.10552702D-06  0.48916637D-07  0.11437893D-07  0.14970181D-06
  0.11159218D-06  0.51728119D-07  0.12095285D-07 -0.21086887D-05 -0.15718793D-05
 -0.72863849D-06 -0.17037330D-06 -0.40895124D-03 -0.30484441D-03 -0.14130944D-03
 -0.33041564D-04  0.35660241D-02  0.26582203D-02  0.12322077D-02  0.28811995D-03
 -0.22696361D-07  0.20413379D-07  0.22829820D-08 -0.19088993D-06  0.38618247D-05
 -0.33673770D-04  0.96259946D-08 -0.86909445D-08 -0.93505008D-09  0.82902934D-07
 -0.24223755D-06  0.21122117D-05  0.20896372D-10  0.39022014D-10  0.66426310D-10
  0.10297191D-09  0.13866231D-09  0.10509737D-09 -0.23240555D-09 -0.54136886D-09
 -0.13205261D-09  0.12671237D-08 -0.13346410D-08  0.11727074D-08 -0.17382387D-08
  0.85279876D-08  0.83604146D-07 -0.72918606D-06 -0.12752958D-08  0.47108955D-05
  0.60326044D-05  0.64548221D-05  0.51361859D-05  0.11821207D-05 -0.41082560D-04
 -0.52608858D-04 -0.56290914D-04 -0.44791413D-04 -0.10308983D-04  0.14637609D-07
  0.18744399D-07  0.20056306D-07  0.15959064D-07  0.36730640D-08 -0.37820431D-05
  0.78590948D-06  0.32982281D-04 -0.68537260D-05 -0.11714624D-07  0.24343017D-08
 -0.11914396D-05  0.10390240D-04 -0.37582544D-08  0.60848360D-06 -0.53064293D-05
  0.20414103D-08 -0.24164154D-06  0.21073496D-05 -0.12520562D-08 -0.96101815D-08
  0.87680009D-08  0.84218064D-09 -0.83984111D-07  0.19508234D-06 -0.17010287D-05
MO    7     MO 0.0        OCC NO =    2.0000000  ORB. ENERGY =  -10.091553
  0.43812760D+00  0.81561520D+00  0.13416793D+01  0.18016502D+01  0.16963216D+01
  0.13939803D+00  0.37095350D+00  0.98569290D+00 -0.13287829D-02  0.27695758D-06
  0.25916406D-06  0.20073258D-06 -0.85308330D-07 -0.79827578D-07 -0.61829545D-07
  0.48430736D-03  0.45319237D-03  0.35101501D-03  0.78374710D-02 -0.89522738D-07
  0.41590018D-07 -0.29337907D-03 -0.13484899D-02  0.15579388D-07 -0.47917426D-08
 -0.94037562D-05 -0.63817325D-03 -0.30785230D-10 -0.57080163D-09  0.25881887D-04
  0.84034868D-03  0.84055933D-03 -0.16809080D-02 -0.37296092D-07  0.16769658D-06
 -0.56055162D-07  0.39167872D-04  0.70653253D-04  0.10416152D-03 -0.12248716D-02
  0.66860651D-03  0.18889178D-04 -0.12438405D-02 -0.19954882D-02 -0.13131121D-03
  0.39162120D-04  0.70642877D-04  0.10414622D-03 -0.12249001D-02  0.66861733D-03
  0.18882729D-04 -0.11062482D-02  0.20749898D-02 -0.13135151D-03  0.39181808D-04
  0.70678391D-04  0.10419858D-03 -0.12248247D-02  0.66858892D-03  0.18913219D-04
  0.23499546D-02 -0.79450260D-04 -0.13120951D-03 -0.46443744D-06 -0.86612501D-06
 -0.14575606D-05 -0.22949421D-05 -0.30441319D-05 -0.19830956D-05  0.11867849D-04
  0.20000093D-04  0.42623749D-05 -0.10316021D-03  0.18410477D-03 -0.23578142D-03
  0.20331202D-03 -0.15869741D-03  0.13867987D-03  0.11043721D-03  0.69210364D-09
 -0.18512441D-09  0.13800579D-04 -0.27432423D-07 -0.36688909D-07 -0.42378521D-07
  0.83104970D-08  0.11114697D-07  0.12838333D-07  0.24142836D-03  0.32289321D-03
  0.37296657D-03 -0.13504036D-06 -0.63693995D-07 -0.11256568D-07  0.40679882D-07
  0.19187332D-07  0.33909556D-08  0.50406257D-03  0.23774936D-03  0.42017177D-04
  0.20537612D-07  0.42904047D-07  0.27339477D-07 -0.61790622D-08 -0.12908355D-07
 -0.82255099D-08 -0.52058254D-04 -0.10875217D-03 -0.69299462D-04 -0.91375021D-07
  0.27448541D-07  0.12827710D-03  0.70719202D-07 -0.21219363D-07 -0.74618228D-04
 -0.23477200D-07  0.70352644D-08 -0.22976495D-04  0.13018443D-07 -0.39432900D-08
  0.51135388D-04 -0.12024223D-02 -0.89632134D-03 -0.41548625D-03 -0.97150735D-04
 -0.12025097D-02 -0.89638650D-03 -0.41551646D-03 -0.97157797D-04  0.24049320D-02
  0.17927078D-02  0.83100271D-03  0.19430853D-03  0.15998163D-07  0.11925507D-07
  0.55280220D-08  0.12925852D-08  0.41988010D-06  0.31299111D-06  0.14508580D-06
  0.33924570D-07 -0.13510178D-06 -0.10070888D-06 -0.46683209D-07 -0.10915663D-07
  0.11748652D-03  0.11749583D-03 -0.23498235D-03 -0.17272723D-08 -0.44628968D-07
  0.14280703D-07 -0.33252644D-04 -0.33256935D-04  0.66509579D-04  0.81744550D-09
  0.17945369D-07 -0.56914407D-08 -0.21237037D-05 -0.39658174D-05 -0.67509230D-05
 -0.10465062D-04 -0.14092287D-04 -0.10681073D-04  0.41101747D-05  0.95743007D-05
  0.23353973D-05 -0.68374681D-04  0.10062390D-03 -0.11527181D-03  0.10055051D-03
  0.86647160D-04 -0.15019692D-08  0.53257749D-09 -0.40117405D-05 -0.21796494D-07
 -0.27911812D-07 -0.29865340D-07 -0.23764239D-07 -0.54694669D-08  0.50609382D-08
  0.64808567D-08  0.69344472D-08  0.55178298D-08  0.12699581D-08 -0.30022124D-03
 -0.38445259D-03 -0.41136015D-03 -0.32732462D-03 -0.75335514D-04  0.17786174D-08
 -0.36959713D-09  0.26600907D-09 -0.55276750D-10  0.26468041D-03 -0.55000654D-04
  0.12669265D-08  0.33340413D-10  0.12888191D-03  0.15548686D-08 -0.60153366D-09
 -0.63008449D-04  0.85986928D-08 -0.25663023D-08 -0.44125043D-04 -0.68134687D-04