 Single Point Energy
GAUSSIAN             31 MOL ORBITALS    210 PRIMITIVES        6 NUCLEI   B3LYP
  C    1    (CENTRE  1)   0.00842101  0.09871853  1.11257162  CHARGE =  6.0
  H    2    (CENTRE  2)   1.22064577  1.72222902  1.25060695  CHARGE =  1.0
  H    3    (CENTRE  3)   0.79558758 -1.71937016  1.55891929  CHARGE =  1.0
  H    4    (CENTRE  4)  -1.98421427  0.37018394  1.39558690  CHARGE =  1.0
  Br   5    (CENTRE  5)  -0.02547268 -0.28601001 -3.22785145  CHARGE = 35.0
  Cl   6    (CENTRE  6)   0.04758815  0.53205862  6.00554457  CHARGE = 17.0
CENTRE ASSIGNMENTS    1  1  1  1  1  1  1  1  1  1  1  1  1  1  1  1  1  1  1  1
CENTRE ASSIGNMENTS    1  1  1  1  1  1  1  1  1  1  1  1  1  1  1  1  2  2  2  2
CENTRE ASSIGNMENTS    2  2  2  2  2  3  3  3  3  3  3  3  3  3  4  4  4  4  4  4
CENTRE ASSIGNMENTS    4  4  4  5  5  5  5  5  5  5  5  5  5  5  5  5  5  5  5  5
CENTRE ASSIGNMENTS    5  5  5  5  5  5  5  5  5  5  5  5  5  5  5  5  5  5  5  5
CENTRE ASSIGNMENTS    5  5  5  5  5  5  5  5  5  5  5  5  5  5  5  5  5  5  5  5
CENTRE ASSIGNMENTS    5  5  5  5  5  5  5  5  5  5  5  5  5  5  5  5  5  5  5  5
CENTRE ASSIGNMENTS    5  5  5  5  5  5  5  5  5  5  5  5  5  5  5  5  5  6  6  6
CENTRE ASSIGNMENTS    6  6  6  6  6  6  6  6  6  6  6  6  6  6  6  6  6  6  6  6
CENTRE ASSIGNMENTS    6  6  6  6  6  6  6  6  6  6  6  6  6  6  6  6  6  6  6  6
CENTRE ASSIGNMENTS    6  6  6  6  6  6  6  6  6  6
TYPE ASSIGNMENTS      1  1  1  1  1  1  1  1  1  2  2  2  3  3  3  4  4  4  1  2
TYPE ASSIGNMENTS      3  4  1  2  3  4  1  2  3  4  5  6  7  8  9 10  1  1  1  1
TYPE ASSIGNMENTS      1  1  2  3  4  1  1  1  1  1  1  2  3  4  1  1  1  1  1  1
TYPE ASSIGNMENTS      2  3  4  1  1  1  1  1  1  1  1  1  1  1  1  1  1  1  1  2
TYPE ASSIGNMENTS      3  4  2  2  2  3  3  3  4  4  4  2  2  2  3  3  3  4  4  4
TYPE ASSIGNMENTS      2  2  2  3  3  3  4  4  4  2  3  4  2  3  4  2  3  4  2  3
TYPE ASSIGNMENTS      4  5  5  5  5  6  6  6  6  7  7  7  7  8  8  8  8  9  9  9
TYPE ASSIGNMENTS      9 10 10 10 10  5  6  7  8  9 10  5  6  7  8  9 10  1  1  1
TYPE ASSIGNMENTS      1  1  1  1  1  1  1  1  1  1  1  2  3  4  2  2  2  2  2  3
TYPE ASSIGNMENTS      3  3  3  3  4  4  4  4  4  2  2  3  3  4  4  2  3  4  2  3
TYPE ASSIGNMENTS      4  2  3  4  5  6  7  8  9 10
EXPONENTS  0.4563240D+04 0.6820240D+03 0.1549730D+03 0.4445530D+02 0.1302900D+02
EXPONENTS  0.1827730D+01 0.2096420D+02 0.4803310D+01 0.1459330D+01 0.2096420D+02
EXPONENTS  0.4803310D+01 0.1459330D+01 0.2096420D+02 0.4803310D+01 0.1459330D+01
EXPONENTS  0.2096420D+02 0.4803310D+01 0.1459330D+01 0.4834560D+00 0.4834560D+00
EXPONENTS  0.4834560D+00 0.4834560D+00 0.1455850D+00 0.1455850D+00 0.1455850D+00
EXPONENTS  0.1455850D+00 0.4380000D-01 0.4380000D-01 0.4380000D-01 0.4380000D-01
EXPONENTS  0.6260000D+00 0.6260000D+00 0.6260000D+00 0.6260000D+00 0.6260000D+00
EXPONENTS  0.6260000D+00 0.3386500D+02 0.5094790D+01 0.1158790D+01 0.3258400D+00
EXPONENTS  0.1027410D+00 0.3600000D-01 0.7500000D+00 0.7500000D+00 0.7500000D+00
EXPONENTS  0.3386500D+02 0.5094790D+01 0.1158790D+01 0.3258400D+00 0.1027410D+00
EXPONENTS  0.3600000D-01 0.7500000D+00 0.7500000D+00 0.7500000D+00 0.3386500D+02
EXPONENTS  0.5094790D+01 0.1158790D+01 0.3258400D+00 0.1027410D+00 0.3600000D-01
EXPONENTS  0.7500000D+00 0.7500000D+00 0.7500000D+00 0.4397000D+06 0.6603000D+05
EXPONENTS  0.1514000D+05 0.4317000D+04 0.1414000D+04 0.5239000D+03 0.5239000D+03
EXPONENTS  0.2077000D+03 0.8654000D+02 0.3052000D+02 0.1298000D+02 0.4412000D+01
EXPONENTS  0.1862000D+01 0.3932000D+00 0.1400000D+00 0.3500000D-01 0.3500000D-01
EXPONENTS  0.3500000D-01 0.3500000D-01 0.2957000D+04 0.7003000D+03 0.2246000D+03
EXPONENTS  0.2957000D+04 0.7003000D+03 0.2246000D+03 0.2957000D+04 0.7003000D+03
EXPONENTS  0.2246000D+03 0.8259000D+02 0.3319000D+02 0.1420000D+02 0.8259000D+02
EXPONENTS  0.3319000D+02 0.1420000D+02 0.8259000D+02 0.3319000D+02 0.1420000D+02
EXPONENTS  0.1420000D+02 0.7438000D+01 0.3526000D+01 0.1420000D+02 0.7438000D+01
EXPONENTS  0.3526000D+01 0.1420000D+02 0.7438000D+01 0.3526000D+01 0.1595000D+01
EXPONENTS  0.1595000D+01 0.1595000D+01 0.8462000D+00 0.8462000D+00 0.8462000D+00
EXPONENTS  0.3186000D+00 0.3186000D+00 0.3186000D+00 0.1096000D+00 0.1096000D+00
EXPONENTS  0.1096000D+00 0.1348000D+03 0.3639000D+02 0.1216000D+02 0.4341000D+01
EXPONENTS  0.1348000D+03 0.3639000D+02 0.1216000D+02 0.4341000D+01 0.1348000D+03
EXPONENTS  0.3639000D+02 0.1216000D+02 0.4341000D+01 0.1348000D+03 0.3639000D+02
EXPONENTS  0.1216000D+02 0.4341000D+01 0.1348000D+03 0.3639000D+02 0.1216000D+02
EXPONENTS  0.4341000D+01 0.1348000D+03 0.3639000D+02 0.1216000D+02 0.4341000D+01
EXPONENTS  0.1535000D+01 0.1535000D+01 0.1535000D+01 0.1535000D+01 0.1535000D+01
EXPONENTS  0.1535000D+01 0.4510000D+00 0.4510000D+00 0.4510000D+00 0.4510000D+00
EXPONENTS  0.4510000D+00 0.4510000D+00 0.1058190D+06 0.1587200D+05 0.3619650D+04
EXPONENTS  0.1030800D+04 0.3399080D+03 0.1245380D+03 0.1245380D+03 0.4951350D+02
EXPONENTS  0.2080560D+02 0.6583460D+01 0.2564680D+01 0.5597630D+00 0.1832730D+00
EXPONENTS  0.4830000D-01 0.4830000D-01 0.4830000D-01 0.4830000D-01 0.5897760D+03
EXPONENTS  0.1398490D+03 0.4514130D+02 0.1687330D+02 0.2771520D+01 0.5897760D+03
EXPONENTS  0.1398490D+03 0.4514130D+02 0.1687330D+02 0.2771520D+01 0.5897760D+03
EXPONENTS  0.1398490D+03 0.4514130D+02 0.1687330D+02 0.2771520D+01 0.6741100D+01
EXPONENTS  0.2771520D+01 0.6741100D+01 0.2771520D+01 0.6741100D+01 0.2771520D+01
EXPONENTS  0.1023870D+01 0.1023870D+01 0.1023870D+01 0.3813680D+00 0.3813680D+00
EXPONENTS  0.3813680D+00 0.1094370D+00 0.1094370D+00 0.1094370D+00 0.7500000D+00
EXPONENTS  0.7500000D+00 0.7500000D+00 0.7500000D+00 0.7500000D+00 0.7500000D+00
MO    1     MO 0.0        OCC NO =    2.0000000  ORB. ENERGY = -482.646775
 -0.87837627D-07 -0.16351790D-06 -0.26898540D-06 -0.36120225D-06 -0.34008554D-06
 -0.27947092D-07  0.22830367D-06  0.60664561D-06 -0.81780067D-09  0.94973616D-08
  0.88871905D-08  0.68834725D-08  0.10332055D-06  0.96682583D-07  0.74884397D-07
  0.11678115D-05  0.10927838D-05  0.84640329D-06 -0.18623682D-05 -0.10636951D-07
 -0.11402420D-06 -0.12897868D-05  0.39758222D-05 -0.12463846D-07 -0.14160015D-06
 -0.15975004D-05  0.49865696D-05 -0.25073454D-07 -0.28155138D-06 -0.31774709D-05
 -0.66230632D-06 -0.64764819D-06  0.13099545D-05  0.28055722D-08  0.30689259D-07
  0.34982882D-06 -0.12043916D-06 -0.21725506D-06 -0.32029122D-06 -0.50125537D-07
 -0.17510904D-05 -0.64621749D-06 -0.28184524D-06 -0.35608664D-06  0.23831464D-06
 -0.12044413D-06 -0.21726402D-06 -0.32030443D-06 -0.49894721D-07 -0.17512000D-05
 -0.64632082D-06 -0.18242848D-06  0.44991542D-06  0.16558447D-06 -0.12043733D-06
 -0.21725176D-06 -0.32028637D-06 -0.50520948D-07 -0.17508265D-05 -0.64597181D-06
  0.46823304D-06 -0.39374814D-07  0.20558733D-06  0.38584361D+01  0.71955613D+01
  0.12109068D+02  0.19065835D+02  0.25289926D+02  0.16475088D+02  0.96359556D+01
  0.16238833D+02  0.34607835D+01  0.81726827D-01 -0.11315019D-01  0.24901235D-02
 -0.64592633D-03  0.73479732D-04 -0.24463027D-04 -0.33478712D-05 -0.28429125D-08
 -0.33122432D-07 -0.37336464D-06  0.10407870D-04  0.13919784D-04  0.16078425D-04
  0.11914090D-03  0.15934246D-03  0.18405284D-03  0.13437687D-02  0.17971947D-02
  0.20758986D-02  0.12085184D-05  0.57001746D-06  0.10073855D-06  0.13876523D-04
  0.65450892D-05  0.11567063D-05  0.15650165D-03  0.73816562D-04  0.13045518D-04
 -0.33323422D-07 -0.69614212D-07 -0.44359828D-07 -0.38495318D-06 -0.80418549D-06
 -0.51244608D-06 -0.43406224D-05 -0.90677664D-05 -0.57781959D-05  0.84530724D-07
  0.97932707D-06  0.11041503D-04 -0.63378165D-07 -0.73374621D-06 -0.82728292D-05
  0.31426976D-07  0.36191941D-06  0.40812091D-05 -0.26558876D-07 -0.30365352D-06
 -0.34249363D-05  0.35685755D-04  0.26601223D-04  0.12330893D-04  0.28832610D-05
  0.34859562D-04  0.25985354D-04  0.12045409D-04  0.28165080D-05 -0.70545317D-04
 -0.52586577D-04 -0.24376302D-04 -0.56997690D-05 -0.14520384D-06 -0.10823926D-06
 -0.50173885D-07 -0.11731868D-07 -0.16373089D-05 -0.12204987D-05 -0.56575741D-06
 -0.13228777D-06 -0.18842695D-04 -0.14045905D-04 -0.65109242D-05 -0.15224116D-05
 -0.39633794D-05 -0.38715283D-05  0.78349077D-05  0.16181307D-07  0.18238118D-06
  0.20924918D-05  0.10629236D-05  0.10382862D-05 -0.21012099D-05 -0.43434256D-08
 -0.48952088D-07 -0.56116010D-06  0.16989859D-06  0.31726968D-06  0.54008114D-06
  0.83721627D-06  0.11273982D-05  0.85449737D-06 -0.61812616D-06 -0.14398720D-05
 -0.35121868D-06  0.22913577D-05 -0.21689218D-05  0.15938956D-05 -0.20148139D-05
  0.64926206D-05 -0.76258899D-08 -0.82940857D-07 -0.93705286D-06  0.69242898D-07
  0.88669981D-07  0.94875929D-07  0.75494011D-07  0.17375351D-07  0.75830884D-06
  0.97106321D-06  0.10390272D-05  0.82676748D-06  0.19028496D-06  0.85655728D-05
  0.10968767D-04  0.11736463D-04  0.93388559D-05  0.21493877D-05 -0.60784754D-07
  0.12631087D-07 -0.66555582D-06  0.13830266D-06 -0.75179165D-05  0.15622249D-05
 -0.16270084D-07 -0.17832897D-06 -0.20142813D-05  0.93227391D-08  0.10246757D-06
  0.11572922D-05 -0.72567005D-08 -0.80748778D-07 -0.91160912D-06 -0.42782250D-06
 -0.41784545D-06  0.84566795D-06  0.18363983D-08  0.20732081D-07  0.22543407D-06
MO    2     MO 0.0        OCC NO =    2.0000000  ORB. ENERGY = -101.289918
 -0.46413297D-06 -0.86402661D-06 -0.14213157D-05 -0.19085884D-05 -0.17970079D-05
 -0.14767210D-06  0.13340456D-05  0.35448089D-05 -0.47786500D-08  0.83046623D-07
  0.77711178D-07  0.60190311D-07  0.92897622D-06  0.86929286D-06  0.67330092D-06
  0.10486432D-04  0.98127167D-05  0.76003284D-05 -0.10532366D-04 -0.13919243D-06
 -0.15134077D-05 -0.17097420D-04  0.24505570D-04  0.17445994D-06  0.19598376D-05
  0.22118603D-04 -0.15279690D-04 -0.86625121D-07 -0.96315368D-06 -0.10873643D-04
 -0.19337919D-05 -0.18914855D-05  0.38252774D-05  0.81783278D-08  0.93323170D-07
  0.10201827D-05  0.23644190D-05  0.42650745D-05  0.62878440D-05 -0.21588389D-04
  0.25750975D-05 -0.42408432D-05  0.47823512D-05  0.53459803D-05 -0.13002576D-04
  0.23641476D-05  0.42645850D-05  0.62871224D-05 -0.21587640D-04  0.25760298D-05
 -0.42420568D-05  0.30671027D-05 -0.85313339D-05 -0.11757388D-04  0.23654570D-05
  0.42669469D-05  0.62906045D-05 -0.21590854D-04  0.25717770D-05 -0.42365711D-05
 -0.81518805D-05 -0.10633801D-06 -0.12425507D-04  0.86394788D-07  0.16111683D-06
  0.27113585D-06  0.42690579D-06  0.56627030D-06  0.36889602D-06 -0.29818146D-05
 -0.50250531D-05 -0.10709280D-05  0.18144801D-04 -0.25593888D-04  0.24249738D-04
 -0.16634289D-04  0.83143950D-05 -0.66183735D-05 -0.46078373D-05 -0.17614191D-08
 -0.25465860D-07 -0.28532059D-06 -0.67745335D-07 -0.90604553D-07 -0.10465525D-06
 -0.78508842D-06 -0.10499998D-05 -0.12128307D-05 -0.88503752D-05 -0.11836746D-04
 -0.13672354D-04  0.20587992D-06  0.97106633D-07  0.17161546D-07  0.23887770D-05
  0.11267057D-05  0.19912144D-06  0.26927742D-04  0.12700910D-04  0.22446176D-05
 -0.25629529D-07 -0.53541303D-07 -0.34117789D-07 -0.29732164D-06 -0.62111903D-06
 -0.39579178D-06 -0.33516115D-05 -0.70016757D-05 -0.44616339D-05  0.99194913D-07
  0.11501368D-05  0.12965374D-04 -0.82710727D-07 -0.95805837D-06 -0.10800477D-04
  0.36986178D-07  0.42729058D-06  0.48173953D-05  0.13356847D-07  0.14790377D-06
  0.16701549D-05 -0.11064283D-03 -0.82476458D-04 -0.38231640D-04 -0.89394820D-05
 -0.10807284D-03 -0.80560709D-04 -0.37343602D-04 -0.87318373D-05  0.21871568D-03
  0.16303717D-03  0.75575242D-04  0.17671319D-04  0.45609802D-06  0.33998902D-06
  0.15760058D-06  0.36850828D-07  0.51515497D-05  0.38401183D-05  0.17800718D-05
  0.41622385D-06  0.58386733D-04  0.43523206D-04  0.20175012D-04  0.47174058D-05
  0.90447438D-05  0.88346725D-05 -0.17879416D-04 -0.37278400D-07 -0.42101887D-06
 -0.47730083D-05 -0.28402763D-05 -0.27743298D-05  0.56146061D-05  0.11700989D-07
  0.13210453D-06  0.14989042D-05  0.12702093D+01  0.23719968D+01  0.40377975D+01
  0.62592628D+01  0.84287436D+01  0.63884611D+01  0.23318213D+01  0.54317784D+01
  0.13249386D+01  0.43876628D-01 -0.56692640D-02  0.65336885D-03 -0.18206648D-03
  0.54620487D-04 -0.87870537D-07 -0.97499420D-06 -0.11007985D-04 -0.14391679D-05
 -0.18429470D-05 -0.19719335D-05 -0.15690932D-05 -0.36113519D-06 -0.15800080D-04
 -0.20233018D-04 -0.21649112D-04 -0.17226480D-04 -0.39647666D-05 -0.17846845D-03
 -0.22854032D-03 -0.24453570D-03 -0.19458023D-03 -0.44783683D-04  0.37059926D-06
 -0.77010617D-07  0.41095799D-05 -0.85397170D-06  0.46406452D-04 -0.96432721D-05
  0.15565355D-06  0.17174143D-05  0.19395557D-04 -0.88816813D-07 -0.98221663D-06
 -0.11090981D-04  0.11111554D-06  0.12305483D-05  0.13894114D-04  0.58994530D-05
  0.57629687D-05 -0.11662422D-04 -0.24932523D-07 -0.28189573D-06 -0.31106563D-05
MO    3     MO 0.0        OCC NO =    2.0000000  ORB. ENERGY =  -62.299713
 -0.85780229D-06 -0.15968786D-05 -0.26268503D-05 -0.35274190D-05 -0.33211980D-05
 -0.27292495D-06  0.26822346D-05  0.71271996D-05 -0.96079630D-08  0.12912325D-06
  0.12082755D-06  0.93585605D-07  0.14039332D-05  0.13137356D-05  0.10175390D-05
  0.15868795D-04  0.14849283D-04  0.11501343D-04 -0.25539434D-04 -0.14699861D-06
 -0.15759820D-05 -0.17826715D-04  0.55474985D-04 -0.17342152D-06 -0.19703930D-05
 -0.22229473D-04  0.71246788D-04 -0.35551050D-06 -0.39920658D-05 -0.45052770D-04
 -0.89480780D-05 -0.87502206D-05  0.17698299D-04  0.37929393D-07  0.41451629D-06
  0.47264662D-05 -0.17319586D-05 -0.31242063D-05 -0.46059035D-05 -0.51532469D-06
 -0.24947964D-04 -0.92850558D-05 -0.38679078D-05 -0.48988529D-05  0.31153914D-05
 -0.17320305D-05 -0.31243360D-05 -0.46060948D-05 -0.51211601D-06 -0.24949498D-04
 -0.92865398D-05 -0.25040067D-05  0.61588247D-05  0.21174640D-05 -0.17319294D-05
 -0.31241536D-05 -0.46058259D-05 -0.52079028D-06 -0.24944275D-04 -0.92815267D-05
  0.64225376D-05 -0.55381150D-06  0.26666870D-05 -0.12742144D+01 -0.23762705D+01
 -0.39989125D+01 -0.62963233D+01 -0.83517744D+01 -0.54407522D+01 -0.53840063D+01
 -0.90733064D+01 -0.19336827D+01  0.58199826D+01  0.24290866D+01  0.10320491D+00
 -0.11006723D-01  0.10625918D-02 -0.34945436D-03 -0.47306342D-04 -0.40558385D-07
 -0.47253921D-06 -0.53265842D-05  0.25502835D-03  0.34108223D-03  0.39397629D-03
  0.29225064D-02  0.39086438D-02  0.45147851D-02  0.32963463D-01  0.44086281D-01
  0.50923055D-01  0.35446385D-03  0.16718868D-03  0.29547067D-04  0.40624135D-02
  0.19161038D-02  0.33863087D-03  0.45820491D-01  0.21611984D-01  0.38194617D-02
  0.65604987D-06  0.13705194D-05  0.87332745D-06  0.74780218D-05  0.15621943D-04
  0.99546727D-05  0.84364605D-04  0.17624167D-03  0.11230537D-03  0.40382918D-06
  0.47583076D-05  0.53612870D-04 -0.63337867D-06 -0.73532877D-05 -0.82897579D-04
  0.41559422D-06  0.47861046D-05  0.53970700D-04 -0.37138762D-06 -0.42459822D-05
 -0.47890886D-04 -0.20774086D-02 -0.15485621D-02 -0.71782993D-03 -0.16784600D-03
 -0.20291071D-02 -0.15125568D-02 -0.70113978D-03 -0.16394344D-03  0.41065157D-02
  0.30611189D-02  0.14189697D-02  0.33178944D-03  0.85739134D-05  0.63912500D-05
  0.29626389D-05  0.69273664D-06  0.96430575D-04  0.71882217D-04  0.33320721D-04
  0.77911904D-05  0.10963898D-02  0.81728152D-03  0.37884766D-03  0.88583744D-04
 -0.33616071D-04 -0.32838384D-04  0.66454456D-04  0.13642011D-06  0.15409962D-05
  0.17750732D-04  0.13567584D-04  0.13253182D-04 -0.26820766D-04 -0.55399268D-07
 -0.62451111D-06 -0.71630350D-05  0.51076268D-06  0.95380138D-06  0.16236349D-05
  0.25169062D-05  0.33892741D-05  0.25688580D-05 -0.52317878D-05 -0.12187003D-04
 -0.29726968D-05  0.27631574D-04 -0.28319176D-04  0.22252677D-04 -0.28612487D-04
  0.92074847D-04 -0.10829768D-06 -0.11779067D-05 -0.13307793D-04  0.79863620D-06
  0.10227050D-05  0.10942834D-05  0.87073551D-06  0.20040444D-06  0.87485533D-05
  0.11203085D-04  0.11987181D-04  0.95383555D-05  0.21953036D-05  0.98819446D-04
  0.12654465D-03  0.13540142D-03  0.10774067D-03  0.24797093D-04 -0.64421176D-06
  0.13386736D-06 -0.70556459D-05  0.14661649D-05 -0.79697630D-04  0.16561187D-04
 -0.20943093D-06 -0.22961818D-05 -0.25935815D-04  0.12864477D-06  0.14143465D-05
  0.15973802D-04 -0.10197239D-06 -0.11349065D-05 -0.12812391D-04 -0.59343204D-05
 -0.57959238D-05  0.11730244D-04  0.25471340D-07  0.28755458D-06  0.31269983D-05
MO    4     MO 0.0        OCC NO =    2.0000000  ORB. ENERGY =  -56.119029
 -0.10390598D-05 -0.19343063D-05 -0.31819157D-05 -0.42727788D-05 -0.40229823D-05
 -0.33059524D-06  0.18837853D-05  0.50055704D-05 -0.67478585D-08  0.11346644D-05
  0.10617663D-05  0.82237907D-06  0.12953926D-04  0.12121683D-04  0.93887120D-05
  0.14610656D-03  0.13671974D-03  0.10589473D-03 -0.50387349D-04 -0.31806744D-06
 -0.36833200D-05 -0.41517860D-04  0.61204659D-04 -0.21014702D-06 -0.23851223D-05
 -0.26905501D-04 -0.11633209D-04  0.30375722D-06  0.34254529D-05  0.38653149D-04
 -0.41125882D-04 -0.40163289D-04  0.81289171D-04  0.16821265D-06  0.19091697D-05
  0.21702903D-04  0.90923188D-05  0.16401246D-04  0.24179760D-04 -0.37635531D-04
 -0.65358361D-05 -0.10808846D-04  0.19136171D-05  0.76522979D-05  0.65257378D-04
  0.90917902D-05  0.16400292D-04  0.24178354D-04 -0.37639374D-04 -0.65344353D-05
 -0.10808990D-04  0.14224079D-05  0.36596199D-05  0.65617919D-04  0.90931984D-05
  0.16402833D-04  0.24182099D-04 -0.37629317D-04 -0.65392911D-05 -0.10808340D-04
 -0.17966098D-05  0.60839152D-05  0.65419556D-04  0.52316823D-03  0.97565152D-03
  0.16418775D-02  0.25851507D-02  0.34290799D-02  0.22338695D-02  0.22385779D-02
  0.37725259D-02  0.80399225D-03 -0.25238317D-02 -0.91624628D-03 -0.10269101D-03
  0.51157343D-04 -0.98957294D-05  0.44055335D-05  0.78202166D-04  0.26486743D-07
  0.30250145D-06  0.34122947D-05  0.67960284D+00  0.90892032D+00  0.10498731D+01
  0.77450842D+01  0.10358498D+02  0.11964864D+02  0.87365499D+02  0.11684512D+03
  0.13496513D+03  0.87385795D+00  0.41216940D+00  0.72842235D-01  0.99589100D+01
  0.46972828D+01  0.83014552D+00  0.11233773D+03  0.52985926D+02  0.93641432D+01
  0.77705069D-03  0.16232958D-02  0.10344026D-02  0.88556229D-02  0.18499817D-01
  0.11788522D-01  0.99892524D-01  0.20868023D+00  0.13297599D+00 -0.29275053D-03
 -0.33362401D-02 -0.37633240D-01  0.82802494D-04  0.94359069D-03  0.10643853D-01
 -0.87285192D-05 -0.99457391D-04 -0.11219014D-02  0.90848903D-06  0.10358316D-04
  0.11684200D-03 -0.16151165D-02 -0.12039558D-02 -0.55808903D-03 -0.13049471D-03
 -0.15775738D-02 -0.11759704D-02 -0.54511648D-03 -0.12746142D-03  0.31926903D-02
  0.23799262D-02  0.11032055D-02  0.25795613D-03  0.65835739D-05  0.49075917D-05
  0.22748950D-05  0.53192546D-06  0.74245245D-04  0.55344613D-04  0.25654779D-04
  0.59987078D-05  0.85263059D-03  0.63557619D-03  0.29461886D-03  0.68889015D-04
 -0.43407155D-04 -0.42401495D-04  0.85808650D-04  0.18020071D-06  0.20332996D-05
  0.22903211D-04  0.16130134D-04  0.15756069D-04 -0.31886203D-04 -0.66718765D-07
 -0.75241470D-06 -0.85117743D-05 -0.17739939D-06 -0.33127672D-06 -0.56392501D-06
 -0.87417826D-06 -0.11771713D-05 -0.89222230D-06  0.19679615D-05  0.45841981D-05
  0.11181938D-05 -0.10731827D-04  0.11295845D-04 -0.93737261D-05  0.78712190D-05
 -0.53801267D-04  0.66772732D-07  0.71841096D-06  0.81194531D-05 -0.31542114D-06
 -0.40391704D-06 -0.43218691D-06 -0.34389674D-06 -0.79149677D-07 -0.34150841D-05
 -0.43732347D-05 -0.46793142D-05 -0.37233912D-05 -0.85695842D-06 -0.38585604D-04
 -0.49411346D-04 -0.52869610D-04 -0.42069037D-04 -0.96824141D-05  0.25139021D-06
 -0.52238947D-07  0.27213539D-05 -0.56549800D-06  0.30747583D-04 -0.63893552D-05
  0.79610598D-07  0.86162537D-06  0.97352326D-05 -0.33126048D-07 -0.35614546D-06
 -0.40246403D-05  0.89301133D-08  0.98243222D-07  0.11090865D-05 -0.30800126D-05
 -0.30081868D-05  0.60881993D-05  0.12675100D-07  0.14272753D-06  0.16253596D-05
MO    5     MO 0.0        OCC NO =    2.0000000  ORB. ENERGY =  -56.116676
  0.37594803D-10  0.69986215D-10  0.11512667D-09  0.15459579D-09  0.14555776D-09
  0.11961450D-10 -0.11872980D-09 -0.31548732D-09  0.42529894D-12 -0.83177770D-05
 -0.77833900D-05 -0.60285364D-05 -0.26565624D-04 -0.24858878D-04 -0.19254162D-04
  0.24188490D-05  0.22634467D-05  0.17531270D-05  0.58504094D-09  0.96690807D-05
  0.30881220D-04 -0.28122387D-05 -0.92328840D-09  0.32360439D-05  0.10338878D-04
 -0.94143051D-06  0.20523349D-09 -0.17501103D-05 -0.55904055D-05  0.50965389D-06
  0.15762559D-05 -0.30092083D-05  0.14329523D-05  0.48859656D-04 -0.92443431D-05
 -0.15470791D-04 -0.14581753D-05 -0.26303402D-05 -0.38778148D-05 -0.22965845D-04
 -0.11412762D-04  0.29707849D-04  0.23028899D-04  0.27722201D-04  0.33242868D-04
  0.11814714D-05  0.21312059D-05  0.31419592D-05  0.18602851D-04  0.92461468D-05
 -0.24065656D-04 -0.16640666D-04  0.19794286D-04 -0.30687757D-04  0.27678384D-06
  0.49927856D-06  0.73606820D-06  0.43636206D-05  0.21673389D-05 -0.56428584D-05
  0.50658940D-05 -0.10928762D-04 -0.58881305D-05 -0.29473662D-08 -0.54965155D-08
 -0.92498244D-08 -0.14563931D-07 -0.19318364D-07 -0.12584922D-07 -0.12308526D-07
 -0.20742737D-07 -0.44206455D-08  0.13573973D-07  0.58592855D-08 -0.52211447D-09
  0.49042220D-09 -0.51261241D-09  0.63152886D-09  0.98349542D-09 -0.24569208D-05
 -0.78483680D-05  0.71500926D-06  0.26107736D+02  0.34917234D+02  0.40332100D+02
  0.83393622D+02  0.11153302D+03  0.12882924D+03 -0.75960593D+01 -0.10159188D+02
 -0.11734645D+02  0.33569633D+02  0.15833666D+02  0.27982661D+01  0.10722850D+03
  0.50576075D+02  0.89382529D+01 -0.97671021D+01 -0.46068135D+01 -0.81415698D+00
  0.29776128D-01  0.62203748D-01  0.39637704D-01  0.95111247D-01  0.19869191D+00
  0.12661120D+00 -0.86633808D-02 -0.18098214D-01 -0.11532612D-01 -0.11082103D-01
 -0.35398588D-01  0.32243460D-02  0.30695007D-02  0.98046413D-02 -0.89307470D-03
 -0.30363027D-03 -0.96986139D-03  0.88341928D-04  0.30632217D-04  0.97846460D-04
 -0.89123508D-05  0.17875839D-04  0.13325182D-04  0.61768360D-05  0.14442936D-05
  0.67020292D-03  0.49958919D-03  0.23158261D-03  0.54149616D-04 -0.68807876D-03
 -0.51291437D-03 -0.23775945D-03 -0.55593910D-04  0.25494350D-03  0.19004246D-03
  0.88093441D-04  0.20598377D-04  0.23608657D-02  0.17598595D-02  0.81577599D-03
  0.19074816D-03  0.74933971D-02  0.55858010D-02  0.25892762D-02  0.60543540D-03
 -0.67652700D-07 -0.51707293D-05  0.52383820D-05  0.11611405D-06 -0.18157835D-04
 -0.57054194D-04 -0.18083014D-07  0.80188537D-07 -0.62105523D-07 -0.57115049D-06
  0.26630052D-06  0.67805963D-06 -0.29201180D-11 -0.54530464D-11 -0.92826000D-11
 -0.14389585D-10 -0.19377063D-10 -0.14686603D-10  0.32425312D-10  0.75531994D-10
  0.18424031D-10 -0.17721922D-09  0.18795165D-09 -0.17535910D-09  0.28573551D-09
 -0.10539517D-08 -0.27037555D-06 -0.86468294D-06  0.78923949D-07 -0.12673422D-04
 -0.16229131D-04 -0.17364996D-04 -0.13817553D-04 -0.31801839D-05 -0.40499390D-04
 -0.51862072D-04 -0.55491861D-04 -0.44155595D-04 -0.10162647D-04  0.36862474D-05
  0.47204767D-05  0.50508594D-05  0.40190345D-05  0.92500232D-06  0.10148565D-04
 -0.21088743D-05  0.32430941D-04 -0.67391576D-05 -0.29518695D-05  0.61339921D-06
  0.32398094D-05  0.10353213D-04 -0.94233058D-06 -0.17051559D-05 -0.54492193D-05
  0.49594982D-06  0.74021508D-06  0.23660066D-05 -0.21528359D-06 -0.26736874D-07
 -0.25526305D-06  0.28199992D-06 -0.69768074D-06 -0.91598443D-06 -0.30748437D-05
MO    6     MO 0.0        OCC NO =    2.0000000  ORB. ENERGY =  -56.116676
 -0.10140469D-09 -0.18877424D-09 -0.31053186D-09 -0.41699217D-09 -0.39261384D-09
 -0.32263693D-10  0.27807787D-09  0.73890496D-09 -0.99609551D-12 -0.26677349D-04
 -0.24963426D-04 -0.19335138D-04  0.83034391D-05  0.77699732D-05  0.60181446D-05
 -0.51960167D-06 -0.48621914D-06 -0.37659552D-06 -0.24381713D-08  0.31011113D-04
 -0.96518261D-05  0.60894121D-06  0.29957006D-08  0.10379203D-04 -0.32315499D-05
  0.20356095D-06 -0.20070359D-07 -0.56132298D-05  0.17464044D-05 -0.12044324D-06
 -0.24924916D-04  0.25036367D-04 -0.11145100D-06  0.19075390D-05 -0.15461298D-04
  0.43031875D-06 -0.52135048D-06 -0.94044188D-06 -0.13864592D-05 -0.82250012D-05
 -0.40794797D-05  0.10637927D-04 -0.86736692D-07  0.16187368D-04  0.11413532D-04
 -0.10015089D-05 -0.18065792D-05 -0.26633739D-05 -0.15781585D-04 -0.78362533D-05
  0.20414717D-04  0.22553809D-05 -0.21792095D-04  0.26567333D-04  0.15234462D-05
  0.27480797D-05  0.40513938D-05  0.23997578D-04  0.11927928D-04 -0.31036249D-04
  0.34568473D-04 -0.58298915D-05 -0.37247627D-04 -0.22166344D-07 -0.41337806D-07
 -0.69565428D-07 -0.10953138D-06 -0.14528819D-06 -0.94647794D-07 -0.95628757D-07
 -0.16115676D-06 -0.34345366D-07  0.11366032D-06  0.27899989D-07  0.15413065D-07
 -0.10475268D-07  0.81496761D-08 -0.83523805D-08 -0.15180515D-07 -0.78802015D-05
  0.24527708D-05 -0.15806228D-06  0.83736100D+02  0.11199106D+03  0.12935832D+03
 -0.26063820D+02 -0.34858501D+02 -0.40264258D+02  0.16592270D+01  0.22190977D+01
  0.25632291D+01  0.10766886D+03  0.50783779D+02  0.89749602D+01 -0.33513166D+02
 -0.15807033D+02 -0.27935592D+01  0.21334535D+01  0.10062782D+01  0.17783842D+00
  0.95501845D-01  0.19950789D+00  0.12713116D+00 -0.29726044D-01 -0.62099119D-01
 -0.39571032D-01  0.18923669D-02  0.39532444D-02  0.25191011D-02 -0.35543958D-01
  0.11063467D-01 -0.70430959D-03  0.98449037D-02 -0.30643410D-02  0.19508175D-03
 -0.97384308D-03  0.30312047D-03 -0.19297032D-04  0.98247704D-04 -0.30581177D-04
  0.19441274D-05  0.65467334D-04  0.48801297D-04  0.22621651D-04  0.52894890D-05
 -0.21573688D-03 -0.16081669D-03 -0.74545947D-04 -0.17430645D-04  0.15026955D-03
  0.11201539D-03  0.51924297D-04  0.12141156D-04  0.65334795D-03  0.48702499D-03
  0.22575853D-03  0.52787804D-04  0.75865099D-02  0.56552100D-02  0.26214505D-02
  0.61295853D-03 -0.23465685D-02 -0.17492019D-02 -0.81083570D-03 -0.18959300D-03
 -0.15335108D-05  0.26627209D-05 -0.11292101D-05 -0.48377327D-05 -0.57755422D-04
  0.17684534D-04  0.30504842D-06 -0.31422193D-06  0.91735053D-08  0.19739274D-07
  0.68433686D-06 -0.15979086D-06  0.26277534D-10  0.49070829D-10  0.83532184D-10
  0.12948888D-09  0.17437015D-09  0.13216168D-09 -0.29126901D-09 -0.67848627D-09
 -0.16549877D-09  0.15977828D-08 -0.17113903D-08  0.17735264D-08 -0.34601843D-08
  0.20330707D-07 -0.86718018D-06  0.26994117D-06 -0.20595981D-07 -0.40647317D-04
 -0.52051501D-04 -0.55694548D-04 -0.44316877D-04 -0.10199766D-04  0.12660926D-04
  0.16213129D-04  0.17347874D-04  0.13803929D-04  0.31770482D-05 -0.76765806D-06
 -0.98303548D-06 -0.10518374D-05 -0.83696072D-06 -0.19263099D-06  0.32549386D-04
 -0.67637703D-05 -0.10138553D-04  0.21067937D-05  0.61491001D-06 -0.12777845D-06
  0.10390985D-04 -0.32366461D-05  0.19592518D-06 -0.54688882D-05  0.17035883D-05
 -0.10257426D-06  0.23740293D-05 -0.73977312D-06  0.43422300D-07  0.26896132D-06
 -0.20785408D-06 -0.61107238D-07 -0.30681342D-06 -0.31144188D-05  0.10165769D-05
MO    7     MO 0.0        OCC NO =    2.0000000  ORB. ENERGY =  -10.086870
  0.43812924D+00  0.81561825D+00  0.13416844D+01  0.18016569D+01  0.16963279D+01
  0.13939856D+00  0.37094344D+00  0.98566617D+00 -0.13287469D-02 -0.11234592D-04
 -0.10512810D-04 -0.81425778D-05 -0.12289279D-03 -0.11499737D-03 -0.89069909D-04
 -0.13881807D-02 -0.12989951D-02 -0.10061219D-02  0.78563867D-02  0.60049050D-05
  0.66391454D-04  0.74977981D-03 -0.13835117D-02  0.22862597D-06  0.27122087D-05
  0.30544446D-04 -0.70150353D-03 -0.48032179D-06 -0.53962279D-05 -0.60901150D-04
  0.80545897D-03  0.78697321D-03 -0.15924322D-02 -0.33414466D-05 -0.37641378D-04
 -0.42504757D-03  0.42227806D-04  0.76172937D-04  0.11229899D-03 -0.12293893D-02
  0.68523376D-03  0.51142429D-04  0.14048539D-02  0.18771924D-02  0.10551678D-03
  0.42221912D-04  0.76162305D-04  0.11228331D-03 -0.12294134D-02  0.68524120D-03
  0.51135827D-04  0.91212798D-03 -0.21124765D-02  0.46293543D-03  0.42241998D-04
  0.76198538D-04  0.11233673D-03 -0.12293258D-02  0.68521738D-03  0.51161188D-04
 -0.23102284D-02  0.30983689D-03  0.27356968D-03  0.19382745D-06  0.36146699D-06
  0.60829560D-06  0.95776682D-06  0.12704323D-05  0.82762140D-06  0.62856217D-05
  0.10592739D-04  0.22575007D-05 -0.42767775D-04  0.72229205D-04 -0.99549219D-04
  0.97584951D-04 -0.15097379D-03  0.18403844D-03  0.26712229D-06 -0.16713020D-07
 -0.20996420D-06 -0.23616250D-05  0.28939582D-05  0.38704627D-05  0.44706831D-05
  0.32894704D-04  0.43994320D-04  0.50816834D-04  0.37111757D-03  0.49634328D-03
  0.57331479D-03  0.57699866D-05  0.27215086D-05  0.48096915D-06  0.65555304D-04
  0.30920231D-04  0.54644978D-05  0.73964585D-03  0.34886606D-03  0.61654708D-04
 -0.59833756D-06 -0.12499556D-05 -0.79650137D-06 -0.67955278D-05 -0.14196180D-04
 -0.90461430D-05 -0.76676556D-04 -0.16018097D-03 -0.10207111D-03  0.20670051D-05
  0.23466687D-04  0.26479512D-03 -0.21594307D-05 -0.24529728D-04 -0.27677105D-03
  0.88201937D-06  0.10037369D-04  0.11324224D-03  0.40523281D-06  0.46026412D-05
  0.51918446D-04 -0.19053482D-02 -0.14203032D-02 -0.65837598D-03 -0.15394423D-03
 -0.18611572D-02 -0.13873619D-02 -0.64310621D-03 -0.15037379D-03  0.37665054D-02
  0.28076651D-02  0.13014822D-02  0.30431801D-03  0.78649709D-05  0.58627831D-05
  0.27176702D-05  0.63545702D-06  0.88723776D-04  0.66137340D-04  0.30657706D-04
  0.71685130D-05  0.10055317D-02  0.74955323D-03  0.34745247D-03  0.81242790D-04
  0.19765765D-03  0.19307361D-03 -0.39073126D-03 -0.81581047D-06 -0.92020769D-05
 -0.10431290D-03 -0.69734203D-04 -0.68117493D-04  0.13785170D-03  0.28775352D-06
  0.32445395D-05  0.36802874D-04 -0.38624067D-06 -0.72126822D-06 -0.12277989D-05
 -0.19032940D-05 -0.25629820D-05 -0.19425802D-05  0.82281382D-05  0.19166745D-04
  0.46752201D-05 -0.63860090D-04  0.77632869D-04 -0.52677546D-04  0.15420404D-04
  0.18043513D-03 -0.16058522D-06 -0.17467199D-05 -0.19731839D-04  0.75959049D-06
  0.97270444D-06  0.10407833D-05  0.82816483D-06  0.19060657D-06  0.67667354D-05
  0.86652396D-05  0.92717135D-05  0.73776230D-05  0.16979994D-05  0.76948602D-04
  0.98537631D-04  0.10543421D-03  0.83895371D-04  0.19308969D-04  0.66392286D-07
 -0.13796333D-07  0.17003068D-05 -0.35332416D-06  0.18878821D-04 -0.39230237D-05
 -0.39366352D-06 -0.39058730D-05 -0.44251137D-04  0.49154896D-06  0.52860893D-05
  0.59736582D-04 -0.29863589D-06 -0.32285869D-05 -0.36479944D-04 -0.18468304D-04