 Single Point Energy
GAUSSIAN             31 MOL ORBITALS    210 PRIMITIVES        6 NUCLEI   B3LYP
  C    1    (CENTRE  1)  -0.58523616  0.00985075  0.07504518  CHARGE =  6.0
  H    2    (CENTRE  2)  -0.96770279 -1.01871434  1.79734494  CHARGE =  1.0
  H    3    (CENTRE  3)  -1.39613260 -0.89899289 -1.56415689  CHARGE =  1.0
  H    4    (CENTRE  4)  -1.12151744  1.97551001  0.21338588  CHARGE =  1.0
  Br   5    (CENTRE  5)   3.23170587 -0.05255016 -0.41363147  CHARGE = 35.0
  Cl   6    (CENTRE  6)  -6.24193739  0.10131461  0.79883861  CHARGE = 17.0
CENTRE ASSIGNMENTS    1  1  1  1  1  1  1  1  1  1  1  1  1  1  1  1  1  1  1  1
CENTRE ASSIGNMENTS    1  1  1  1  1  1  1  1  1  1  1  1  1  1  1  1  2  2  2  2
CENTRE ASSIGNMENTS    2  2  2  2  2  3  3  3  3  3  3  3  3  3  4  4  4  4  4  4
CENTRE ASSIGNMENTS    4  4  4  5  5  5  5  5  5  5  5  5  5  5  5  5  5  5  5  5
CENTRE ASSIGNMENTS    5  5  5  5  5  5  5  5  5  5  5  5  5  5  5  5  5  5  5  5
CENTRE ASSIGNMENTS    5  5  5  5  5  5  5  5  5  5  5  5  5  5  5  5  5  5  5  5
CENTRE ASSIGNMENTS    5  5  5  5  5  5  5  5  5  5  5  5  5  5  5  5  5  5  5  5
CENTRE ASSIGNMENTS    5  5  5  5  5  5  5  5  5  5  5  5  5  5  5  5  5  6  6  6
CENTRE ASSIGNMENTS    6  6  6  6  6  6  6  6  6  6  6  6  6  6  6  6  6  6  6  6
CENTRE ASSIGNMENTS    6  6  6  6  6  6  6  6  6  6  6  6  6  6  6  6  6  6  6  6
CENTRE ASSIGNMENTS    6  6  6  6  6  6  6  6  6  6
TYPE ASSIGNMENTS      1  1  1  1  1  1  1  1  1  2  2  2  3  3  3  4  4  4  1  2
TYPE ASSIGNMENTS      3  4  1  2  3  4  1  2  3  4  5  6  7  8  9 10  1  1  1  1
TYPE ASSIGNMENTS      1  1  2  3  4  1  1  1  1  1  1  2  3  4  1  1  1  1  1  1
TYPE ASSIGNMENTS      2  3  4  1  1  1  1  1  1  1  1  1  1  1  1  1  1  1  1  2
TYPE ASSIGNMENTS      3  4  2  2  2  3  3  3  4  4  4  2  2  2  3  3  3  4  4  4
TYPE ASSIGNMENTS      2  2  2  3  3  3  4  4  4  2  3  4  2  3  4  2  3  4  2  3
TYPE ASSIGNMENTS      4  5  5  5  5  6  6  6  6  7  7  7  7  8  8  8  8  9  9  9
TYPE ASSIGNMENTS      9 10 10 10 10  5  6  7  8  9 10  5  6  7  8  9 10  1  1  1
TYPE ASSIGNMENTS      1  1  1  1  1  1  1  1  1  1  1  2  3  4  2  2  2  2  2  3
TYPE ASSIGNMENTS      3  3  3  3  4  4  4  4  4  2  2  3  3  4  4  2  3  4  2  3
TYPE ASSIGNMENTS      4  2  3  4  5  6  7  8  9 10
EXPONENTS  0.4563240D+04 0.6820240D+03 0.1549730D+03 0.4445530D+02 0.1302900D+02
EXPONENTS  0.1827730D+01 0.2096420D+02 0.4803310D+01 0.1459330D+01 0.2096420D+02
EXPONENTS  0.4803310D+01 0.1459330D+01 0.2096420D+02 0.4803310D+01 0.1459330D+01
EXPONENTS  0.2096420D+02 0.4803310D+01 0.1459330D+01 0.4834560D+00 0.4834560D+00
EXPONENTS  0.4834560D+00 0.4834560D+00 0.1455850D+00 0.1455850D+00 0.1455850D+00
EXPONENTS  0.1455850D+00 0.4380000D-01 0.4380000D-01 0.4380000D-01 0.4380000D-01
EXPONENTS  0.6260000D+00 0.6260000D+00 0.6260000D+00 0.6260000D+00 0.6260000D+00
EXPONENTS  0.6260000D+00 0.3386500D+02 0.5094790D+01 0.1158790D+01 0.3258400D+00
EXPONENTS  0.1027410D+00 0.3600000D-01 0.7500000D+00 0.7500000D+00 0.7500000D+00
EXPONENTS  0.3386500D+02 0.5094790D+01 0.1158790D+01 0.3258400D+00 0.1027410D+00
EXPONENTS  0.3600000D-01 0.7500000D+00 0.7500000D+00 0.7500000D+00 0.3386500D+02
EXPONENTS  0.5094790D+01 0.1158790D+01 0.3258400D+00 0.1027410D+00 0.3600000D-01
EXPONENTS  0.7500000D+00 0.7500000D+00 0.7500000D+00 0.4397000D+06 0.6603000D+05
EXPONENTS  0.1514000D+05 0.4317000D+04 0.1414000D+04 0.5239000D+03 0.5239000D+03
EXPONENTS  0.2077000D+03 0.8654000D+02 0.3052000D+02 0.1298000D+02 0.4412000D+01
EXPONENTS  0.1862000D+01 0.3932000D+00 0.1400000D+00 0.3500000D-01 0.3500000D-01
EXPONENTS  0.3500000D-01 0.3500000D-01 0.2957000D+04 0.7003000D+03 0.2246000D+03
EXPONENTS  0.2957000D+04 0.7003000D+03 0.2246000D+03 0.2957000D+04 0.7003000D+03
EXPONENTS  0.2246000D+03 0.8259000D+02 0.3319000D+02 0.1420000D+02 0.8259000D+02
EXPONENTS  0.3319000D+02 0.1420000D+02 0.8259000D+02 0.3319000D+02 0.1420000D+02
EXPONENTS  0.1420000D+02 0.7438000D+01 0.3526000D+01 0.1420000D+02 0.7438000D+01
EXPONENTS  0.3526000D+01 0.1420000D+02 0.7438000D+01 0.3526000D+01 0.1595000D+01
EXPONENTS  0.1595000D+01 0.1595000D+01 0.8462000D+00 0.8462000D+00 0.8462000D+00
EXPONENTS  0.3186000D+00 0.3186000D+00 0.3186000D+00 0.1096000D+00 0.1096000D+00
EXPONENTS  0.1096000D+00 0.1348000D+03 0.3639000D+02 0.1216000D+02 0.4341000D+01
EXPONENTS  0.1348000D+03 0.3639000D+02 0.1216000D+02 0.4341000D+01 0.1348000D+03
EXPONENTS  0.3639000D+02 0.1216000D+02 0.4341000D+01 0.1348000D+03 0.3639000D+02
EXPONENTS  0.1216000D+02 0.4341000D+01 0.1348000D+03 0.3639000D+02 0.1216000D+02
EXPONENTS  0.4341000D+01 0.1348000D+03 0.3639000D+02 0.1216000D+02 0.4341000D+01
EXPONENTS  0.1535000D+01 0.1535000D+01 0.1535000D+01 0.1535000D+01 0.1535000D+01
EXPONENTS  0.1535000D+01 0.4510000D+00 0.4510000D+00 0.4510000D+00 0.4510000D+00
EXPONENTS  0.4510000D+00 0.4510000D+00 0.1058190D+06 0.1587200D+05 0.3619650D+04
EXPONENTS  0.1030800D+04 0.3399080D+03 0.1245380D+03 0.1245380D+03 0.4951350D+02
EXPONENTS  0.2080560D+02 0.6583460D+01 0.2564680D+01 0.5597630D+00 0.1832730D+00
EXPONENTS  0.4830000D-01 0.4830000D-01 0.4830000D-01 0.4830000D-01 0.5897760D+03
EXPONENTS  0.1398490D+03 0.4514130D+02 0.1687330D+02 0.2771520D+01 0.5897760D+03
EXPONENTS  0.1398490D+03 0.4514130D+02 0.1687330D+02 0.2771520D+01 0.5897760D+03
EXPONENTS  0.1398490D+03 0.4514130D+02 0.1687330D+02 0.2771520D+01 0.6741100D+01
EXPONENTS  0.2771520D+01 0.6741100D+01 0.2771520D+01 0.6741100D+01 0.2771520D+01
EXPONENTS  0.1023870D+01 0.1023870D+01 0.1023870D+01 0.3813680D+00 0.3813680D+00
EXPONENTS  0.3813680D+00 0.1094370D+00 0.1094370D+00 0.1094370D+00 0.7500000D+00
EXPONENTS  0.7500000D+00 0.7500000D+00 0.7500000D+00 0.7500000D+00 0.7500000D+00
MO    1     MO 0.0        OCC NO =    2.0000000  ORB. ENERGY = -482.688564
  0.21412096D-06  0.39860604D-06  0.65570318D-06  0.88049932D-06  0.82902330D-06
  0.68126364D-07 -0.48139843D-06 -0.12791658D-05  0.17244048D-08  0.44587046D-05
  0.41722490D-05  0.32315681D-05 -0.72944054D-07 -0.68257662D-07 -0.52868198D-07
 -0.57085179D-06 -0.53417663D-06 -0.41374045D-06  0.53634946D-07 -0.87263435D-06
  0.14132100D-07  0.11164918D-06  0.55207731D-05  0.11737020D-05 -0.19443984D-07
 -0.15037157D-06  0.85455618D-05  0.31450251D-05 -0.51244965D-07 -0.40257902D-06
 -0.24766356D-05  0.12684639D-05  0.12081718D-05  0.12277408D-06  0.95936962D-06
 -0.15659149D-07 -0.21064978D-06 -0.37998214D-06 -0.56019384D-06 -0.10952929D-05
 -0.14873599D-05 -0.36867046D-06  0.44042060D-08 -0.69973364D-06  0.11314718D-05
 -0.21063473D-06 -0.37995500D-06 -0.56015383D-06 -0.10954839D-05 -0.14875079D-05
 -0.36884206D-06 -0.28533143D-06 -0.61899334D-06 -0.11428366D-05 -0.21067765D-06
 -0.38003243D-06 -0.56026797D-06 -0.10949834D-05 -0.14870733D-05 -0.36835000D-06
 -0.99960936D-07  0.13247816D-05  0.60033868D-07  0.38584363D+01  0.71955615D+01
  0.12109068D+02  0.19065835D+02  0.25289927D+02  0.16475089D+02  0.96359545D+01
  0.16238831D+02  0.34607831D+01  0.81731254D-01 -0.11320379D-01  0.24946112D-02
 -0.64875817D-03  0.74938871D-04 -0.26292718D-04 -0.55376546D-05  0.59557055D-06
 -0.98047580D-08 -0.76278472D-07 -0.23555811D-02 -0.31504218D-02 -0.36389802D-02
  0.38545393D-04  0.51551714D-04  0.59546207D-04  0.30158732D-03  0.40335153D-03
  0.46590213D-03 -0.26410426D-03 -0.12456910D-03 -0.22014956D-04  0.43245512D-05
  0.20397453D-05  0.36048190D-06  0.33815046D-04  0.15949419D-04  0.28187230D-05
  0.68716740D-05  0.14355254D-04  0.91475082D-05 -0.11277655D-06 -0.23559557D-06
 -0.15012709D-06 -0.87994469D-06 -0.18382463D-05 -0.11713741D-05 -0.16741953D-04
  0.27511577D-06  0.21440369D-05  0.12093321D-04 -0.19874220D-06 -0.15487253D-05
 -0.49057127D-05  0.80556655D-07  0.62822065D-06  0.37621109D-05 -0.61614676D-07
 -0.48170329D-06 -0.31189466D-04 -0.23249555D-04 -0.10777241D-04 -0.25199795D-05
  0.15974091D-04  0.11907563D-04  0.55197041D-05  0.12906403D-05  0.15215375D-04
  0.11341993D-04  0.52575365D-05  0.12293392D-05  0.15524398D-05  0.11572348D-05
  0.53643166D-06  0.12543070D-06  0.12084557D-04  0.90081881D-05  0.41757104D-05
  0.97638208D-06 -0.19820904D-06 -0.14775091D-06 -0.68489356D-07 -0.16014468D-07
  0.55830304D-05 -0.28595199D-05 -0.27235105D-05 -0.27687537D-06 -0.21627131D-05
  0.35402873D-07 -0.16660391D-05  0.85331770D-06  0.81272138D-06  0.82562521D-07
  0.64535066D-06 -0.10559400D-07  0.17289445D-06  0.32286416D-06  0.54960451D-06
  0.85197908D-06  0.11472778D-05  0.86956490D-06 -0.62945997D-06 -0.14662732D-05
 -0.35765855D-06  0.23443981D-05 -0.22396154D-05  0.17180181D-05 -0.20571106D-05
  0.44607317D-05  0.73909977D-06 -0.11856770D-07 -0.94530951D-07 -0.11987015D-04
 -0.15350143D-04 -0.16424489D-04 -0.13069179D-04 -0.30079416D-05  0.19360471D-06
  0.24792328D-06  0.26527525D-06  0.21108297D-06  0.48581875D-07  0.15336904D-05
  0.19639891D-05  0.21014473D-05  0.16721489D-05  0.38485403D-06  0.10562318D-04
 -0.21948522D-05 -0.17057608D-06  0.35445751D-07 -0.13513985D-05  0.28082093D-06
  0.27572058D-05 -0.44553252D-07 -0.35278234D-06 -0.14198341D-05  0.22971802D-07
  0.18167890D-06  0.71746676D-06 -0.11668183D-07 -0.91830738D-07  0.62412687D-06
 -0.31969748D-06 -0.30442939D-06 -0.30333955D-07 -0.24149552D-06  0.39000532D-08
MO    2     MO 0.0        OCC NO =    2.0000000  ORB. ENERGY = -101.257546
  0.67791503D-06  0.12620018D-05  0.20759810D-05  0.27876941D-05  0.26247191D-05
  0.21569064D-06 -0.17392889D-05 -0.46216163D-05  0.62302617D-08 -0.16215315D-04
 -0.15173540D-04 -0.11752493D-04  0.26212384D-06  0.24528333D-06  0.18998142D-06
  0.20747443D-05  0.19414494D-05  0.15037276D-05  0.51712228D-06  0.11501473D-04
 -0.18214317D-06 -0.14699901D-05  0.18310480D-04 -0.17356301D-04  0.28354529D-06
  0.22220503D-05  0.10992081D-06  0.48886650D-05 -0.79153976D-07 -0.62556672D-06
 -0.66097871D-05  0.33874787D-05  0.32223084D-05  0.32515016D-06  0.25587357D-05
 -0.42834086D-07  0.32451433D-05  0.58537755D-05  0.86300081D-05 -0.26414723D-04
  0.21218417D-05 -0.69869108D-05  0.11768455D-04 -0.81940477D-05  0.11433066D-04
  0.32449360D-05  0.58534015D-05  0.86294567D-05 -0.26414489D-04  0.21245978D-05
 -0.69898509D-05  0.84539758D-05 -0.72656186D-05 -0.14555757D-04  0.32455069D-05
  0.58544314D-05  0.86309751D-05 -0.26415039D-04  0.21169715D-05 -0.69816796D-05
  0.10583084D-04  0.14969417D-04 -0.81561373D-06  0.87506247D-07  0.16318958D-06
  0.27462398D-06  0.43239789D-06  0.57355531D-06  0.37364183D-06 -0.30400278D-05
 -0.51231559D-05 -0.10918355D-05  0.18496460D-04 -0.26096483D-04  0.24782607D-04
 -0.17120725D-04  0.94193326D-05 -0.55569221D-05  0.37008167D-05 -0.98138720D-06
  0.15623956D-07  0.12546951D-06  0.31342790D-05  0.41918747D-05  0.48419386D-05
 -0.50623572D-07 -0.67705417D-07 -0.78204980D-07 -0.40099640D-06 -0.53630409D-06
 -0.61947260D-06 -0.91632080D-05 -0.43219770D-05 -0.76381814D-06  0.14783408D-06
  0.69728364D-07  0.12323016D-07  0.11722556D-05  0.55291352D-06  0.97715786D-07
  0.11493642D-05  0.24010765D-05  0.15300229D-05 -0.18550987D-07 -0.38753894D-07
 -0.24694901D-07 -0.14704238D-06 -0.30717852D-06 -0.19574144D-06 -0.45541045D-05
  0.73616003D-07  0.58267201D-06  0.39814722D-05 -0.64492672D-07 -0.50946562D-06
 -0.27272318D-05  0.44388057D-07  0.34907126D-06 -0.23643390D-05  0.38688110D-07
  0.30271581D-06  0.15750922D-03  0.11741206D-03  0.54425901D-04  0.12726092D-04
 -0.80671683D-04 -0.60135071D-04 -0.27875377D-04 -0.65179373D-05 -0.76837541D-04
 -0.57276987D-04 -0.26550524D-04 -0.62081545D-05 -0.78010469D-05 -0.58151323D-05
 -0.26955819D-05 -0.63029223D-06 -0.61010143D-04 -0.45478774D-04 -0.21081508D-04
 -0.49293664D-05  0.99631024D-06  0.74267928D-06  0.34426608D-06  0.80497735D-07
 -0.12707160D-04  0.65082457D-05  0.61989142D-05  0.62936838D-06  0.49220370D-05
 -0.80383227D-07  0.38965204D-05 -0.19957006D-05 -0.19008197D-05 -0.19298696D-06
 -0.15092873D-05  0.24657808D-07  0.12702097D+01  0.23719974D+01  0.40377986D+01
  0.62592644D+01  0.84287459D+01  0.63884628D+01  0.23318250D+01  0.54317870D+01
  0.13249407D+01  0.43855105D-01 -0.56482021D-02  0.63628507D-03 -0.16757331D-03
  0.36774804D-04  0.75865091D-05 -0.12310303D-06 -0.97090207D-06  0.15231252D-03
  0.19504597D-03  0.20869709D-03  0.16606299D-03  0.38220287D-04 -0.24470721D-05
 -0.31336332D-05 -0.33529539D-05 -0.26679890D-05 -0.61405196D-06 -0.19483082D-04
 -0.24949338D-04 -0.26695525D-04 -0.21241976D-04 -0.48889546D-05 -0.79177676D-04
  0.16453141D-04  0.12737417D-05 -0.26468384D-06  0.10127821D-04 -0.21045638D-05
 -0.27414849D-04  0.44172334D-06  0.35071848D-05  0.16008543D-04 -0.25853439D-06
 -0.20482118D-05 -0.11234411D-04  0.18188894D-06  0.14375786D-05 -0.46386251D-05
  0.23757845D-05  0.22628406D-05  0.22650562D-06  0.17953515D-05 -0.28956225D-07
MO    3     MO 0.0        OCC NO =    2.0000000  ORB. ENERGY =  -62.341583
  0.23068933D-05  0.42944960D-05  0.70644055D-05  0.94863110D-05  0.89317194D-05
  0.73397884D-06 -0.57920089D-05 -0.15390452D-04  0.20747405D-07  0.62903747D-04
  0.58862409D-04  0.45591211D-04 -0.10290543D-05 -0.96294130D-06 -0.74583526D-06
 -0.80536029D-05 -0.75361880D-05 -0.58370689D-05  0.98037083D-06 -0.13379913D-04
  0.21687592D-06  0.17119954D-05  0.77082894D-04  0.16251745D-04 -0.26929202D-06
 -0.20821515D-05  0.12149295D-03  0.44515853D-04 -0.72534303D-06 -0.56982531D-05
 -0.36086249D-04  0.18482377D-04  0.17603872D-04  0.17886748D-05  0.13978560D-04
 -0.22815391D-06 -0.29701928D-05 -0.53578040D-05 -0.78988153D-05 -0.15344916D-04
 -0.21180899D-04 -0.53349581D-05  0.10095003D-06 -0.99002741D-05  0.16002589D-04
 -0.29699858D-05 -0.53574306D-05 -0.78982648D-05 -0.15347582D-04 -0.21182981D-04
 -0.53374049D-05 -0.39981490D-05 -0.87579230D-05 -0.16173223D-04 -0.29705778D-05
 -0.53584986D-05 -0.78998394D-05 -0.15340585D-04 -0.21176865D-04 -0.53303711D-05
 -0.13754528D-05  0.18741955D-04  0.84433404D-06 -0.12742128D+01 -0.23762674D+01
 -0.39989074D+01 -0.62963151D+01 -0.83517636D+01 -0.54407451D+01 -0.53840040D+01
 -0.90733025D+01 -0.19336818D+01  0.58199998D+01  0.24290351D+01  0.10326143D+00
 -0.11042972D-01  0.10821942D-02 -0.37467793D-03 -0.78231033D-04  0.84879286D-05
 -0.13973328D-06 -0.10871006D-05 -0.56551841D-01 -0.75634054D-01 -0.87363168D-01
  0.92528774D-03  0.12375064D-02  0.14294153D-02  0.72403824D-02  0.96834951D-02
  0.11185184D-01 -0.78530599D-01 -0.37040242D-01 -0.65460803D-02  0.12849321D-02
  0.60605924D-03  0.10710817D-03  0.10054370D-01  0.47423080D-02  0.83810277D-03
 -0.15221148D-03 -0.31797702D-03 -0.20262250D-03  0.24866206D-05  0.51946686D-05
  0.33101661D-05  0.19484943D-04  0.40704973D-04  0.25938175D-04 -0.62893409D-04
  0.10437582D-05  0.80606658D-05  0.11351761D-03 -0.18686233D-05 -0.14539703D-04
 -0.63152149D-04  0.10372045D-05  0.80873944D-05  0.52244367D-04 -0.85563836D-06
 -0.66894176D-05  0.63156170D-02  0.47078487D-02  0.21823048D-02  0.51027565D-03
 -0.32348377D-02 -0.24113442D-02 -0.11177692D-02 -0.26136147D-03 -0.30807793D-02
 -0.22965045D-02 -0.10645357D-02 -0.24891419D-03 -0.31229648D-03 -0.23279508D-03
 -0.10791125D-03 -0.25232260D-04 -0.24459803D-02 -0.18233064D-02 -0.84518657D-03
 -0.19762506D-03  0.39953100D-04  0.29782229D-04  0.13805436D-04  0.32280447D-05
  0.22229326D-04 -0.11384684D-04 -0.10844641D-04 -0.11089667D-05 -0.86151427D-05
  0.14184805D-06 -0.19809537D-04  0.10146081D-04  0.96634562D-05  0.98198277D-06
  0.76735324D-05 -0.12559787D-06  0.52382859D-06  0.97820074D-06  0.16651694D-05
  0.25812917D-05  0.34759758D-05  0.26345725D-05 -0.53422142D-05 -0.12444231D-04
 -0.30354409D-05  0.28342748D-04 -0.29312585D-04  0.23984194D-04 -0.29150724D-04
  0.63208178D-04  0.10500760D-04 -0.16846205D-06 -0.13430513D-05 -0.13779155D-03
 -0.17645093D-03 -0.18880060D-03 -0.15023110D-03 -0.34576491D-04  0.22257068D-05
  0.28501606D-05  0.30496412D-05  0.24266392D-05  0.55850401D-06  0.17629982D-04
  0.22576326D-04  0.24156426D-04  0.19221583D-04  0.44239502D-05  0.11137041D-03
 -0.23142799D-04 -0.17987059D-05  0.37377153D-06 -0.14249388D-04  0.29610264D-05
  0.35258670D-04 -0.56980874D-06 -0.45113531D-05 -0.19404732D-04  0.31399041D-06
  0.24830049D-05  0.10028078D-04 -0.16310730D-06 -0.12835330D-05  0.86542303D-05
 -0.44329711D-05 -0.42212592D-05 -0.42063639D-06 -0.33486198D-05  0.54081639D-07
MO    4     MO 0.0        OCC NO =    2.0000000  ORB. ENERGY =  -56.161431
 -0.72794357D-05 -0.13551345D-04 -0.22291836D-04 -0.29934194D-04 -0.28184172D-04
 -0.23160810D-05  0.21640581D-04  0.57503076D-04 -0.77518163D-07  0.12414186D-03
  0.11616619D-03  0.89975207D-04 -0.20302760D-05 -0.18998381D-05 -0.14714980D-05
 -0.15893925D-04 -0.14872797D-04 -0.11519556D-04  0.33185062D-04 -0.10568611D-03
  0.17291255D-05  0.13531338D-04 -0.93662267D-04 -0.31969829D-04  0.52209257D-06
  0.40926949D-05  0.35820709D-04  0.30250143D-04 -0.49359711D-06 -0.38724953D-05
 -0.96869202D-04  0.49614787D-04  0.47254415D-04  0.47901011D-05  0.37518462D-04
 -0.61267491D-06 -0.76511703D-05 -0.13801620D-04 -0.20347225D-04  0.40867124D-04
  0.11570089D-04  0.12549425D-04  0.62885908D-04 -0.76305312D-06 -0.84796698D-05
 -0.76514841D-05 -0.13802186D-04 -0.20348060D-04  0.40867173D-04  0.11569631D-04
  0.12549511D-04  0.62996282D-04 -0.79405381D-06 -0.76193387D-05 -0.76506509D-05
 -0.13800683D-04 -0.20345844D-04  0.40866515D-04  0.11570823D-04  0.12549113D-04
  0.62924123D-04 -0.15304986D-05 -0.80738163D-05 -0.90084897D-03 -0.16799848D-02
 -0.28271665D-02 -0.44513987D-02 -0.59045694D-02 -0.38465237D-02 -0.38529943D-02
 -0.64931941D-02 -0.13838149D-02  0.43270394D-02  0.16069661D-02  0.15054642D-03
 -0.68559865D-04 -0.58838801D-05  0.27194118D-04 -0.83300659D-04  0.36133552D-05
 -0.59280296D-07 -0.46270945D-06  0.86988252D+02  0.11634058D+03  0.13438235D+03
 -0.14222747D+01 -0.19021909D+01 -0.21971773D+01 -0.11136932D+02 -0.14894852D+02
 -0.17204703D+02  0.11185310D+03  0.52757343D+02  0.93237460D+01 -0.18288197D+01
 -0.86259270D+00 -0.15244504D+00 -0.14320328D+02 -0.67544171D+01 -0.11937005D+01
  0.99538797D-01  0.20794128D+00  0.13250512D+00 -0.16274803D-02 -0.33998836D-02
 -0.21664865D-02 -0.12743752D-01 -0.26622304D-01 -0.16964364D-01 -0.37669979D-01
  0.61591610D-03  0.48228130D-02  0.10758708D-01 -0.17591036D-03 -0.13774172D-02
 -0.11726749D-02  0.19174788D-04  0.15013588D-03  0.11006905D-03 -0.18002845D-05
 -0.14092176D-04 -0.50742263D-02 -0.37824791D-02 -0.17533534D-02 -0.40997644D-03
  0.25990017D-02  0.19373731D-02  0.89806174D-03  0.20998855D-03  0.24752246D-02
  0.18451060D-02  0.85529169D-03  0.19998788D-03  0.25128626D-03  0.18731625D-03
  0.86829714D-04  0.20302887D-04  0.19652200D-02  0.14649334D-02  0.67906415D-03
  0.15878162D-03 -0.32120134D-04 -0.23943303D-04 -0.11098824D-04 -0.25951736D-05
 -0.17483423D-03  0.89549522D-04  0.85284707D-04  0.86401942D-05  0.67714585D-04
 -0.11068920D-05  0.65699592D-04 -0.33651083D-04 -0.32048510D-04 -0.32481724D-05
 -0.25445797D-04  0.41594400D-06  0.54020646D-07  0.10087849D-06  0.17172321D-06
  0.26619976D-06  0.35846546D-06  0.27169442D-06 -0.60345626D-06 -0.14056998D-05
 -0.34288326D-06  0.31663549D-05 -0.30526850D-05  0.10647598D-05  0.22689011D-05
  0.20647740D-04  0.37442116D-05 -0.59529955D-07 -0.47866278D-06  0.32729246D-04
  0.41911903D-04  0.44845287D-04  0.35683978D-04  0.82128587D-05 -0.53828892D-06
 -0.68931356D-06 -0.73755812D-06 -0.58688459D-06 -0.13507463D-06 -0.41917249D-05
 -0.53677731D-05 -0.57434597D-05 -0.45701456D-05 -0.10518435D-05 -0.25108017D-04
  0.52174521D-05  0.41317713D-06 -0.85858308D-07  0.32157518D-05 -0.66823402D-06
 -0.97497179D-05  0.16006765D-06  0.12485526D-05  0.67736134D-05 -0.11092259D-06
 -0.86731043D-06 -0.13047919D-05  0.21525615D-07  0.16714106D-06 -0.48526653D-05
  0.24857421D-05  0.23669232D-05  0.24120121D-06  0.18799726D-05 -0.31016140D-07
MO    5     MO 0.0        OCC NO =    2.0000000  ORB. ENERGY =  -56.158249
 -0.23765873D-09 -0.44242379D-09 -0.72778297D-09 -0.97729038D-09 -0.92015573D-09
 -0.75615322D-10  0.78931820D-09  0.20973662D-08 -0.28273962D-11  0.72225455D-06
  0.67585231D-06  0.52347373D-06 -0.50833614D-04 -0.47567738D-04 -0.36843052D-04
  0.12121811D-04  0.11343029D-04  0.87856143D-05 -0.24139260D-08 -0.69557289D-06
  0.49010230D-04 -0.11687008D-04  0.42253865D-08 -0.15285963D-06  0.10769026D-04
 -0.25679834D-05  0.17489690D-07  0.99614547D-07 -0.75026096D-05  0.17900141D-05
 -0.91351886D-06  0.27627208D-04 -0.26713689D-04  0.39181467D-04 -0.15253930D-04
  0.15241583D-04  0.12781302D-05  0.23055644D-05  0.33990097D-05  0.21238586D-04
  0.70812400D-05 -0.26395851D-04  0.34654239D-04  0.59906908D-05 -0.28953636D-04
  0.45107047D-06  0.81366678D-06  0.11995593D-05  0.75036324D-05  0.24955968D-05
 -0.93260249D-05  0.14770104D-04 -0.51034537D-05  0.10451483D-04 -0.17307327D-05
 -0.31219949D-05 -0.46026434D-05 -0.28733971D-04 -0.96011001D-05  0.35705849D-04
 -0.49906029D-04  0.33352695D-04  0.10336796D-04  0.94199346D-08  0.17567147D-07
  0.29562917D-07  0.46547075D-07  0.61742488D-07  0.40222061D-07  0.41270749D-07
  0.69550839D-07  0.14822518D-07 -0.50290783D-07 -0.94532973D-08 -0.10258015D-07
  0.76944944D-08 -0.53278512D-08  0.48004208D-08  0.11685374D-07  0.10906991D-06
 -0.77862377D-05  0.18569762D-05 -0.12097948D+01 -0.16180143D+01 -0.18689314D+01
  0.85314115D+02  0.11410154D+03  0.13179609D+03 -0.20344745D+02 -0.27209646D+02
 -0.31429240D+02 -0.15555626D+01 -0.73370655D+00 -0.12966713D+00  0.10969748D+03
  0.51740612D+02  0.91440603D+01 -0.26159415D+02 -0.12338516D+02 -0.21805721D+01
 -0.13797778D-02 -0.28824215D-02 -0.18367473D-02  0.97301087D-01  0.20326660D+00
  0.12952630D+00 -0.23203263D-01 -0.48472719D-01 -0.30887967D-01  0.51387018D-03
 -0.36237520D-01  0.86415130D-02 -0.14253296D-03  0.10051085D-01 -0.23968682D-02
  0.14163490D-04 -0.99865800D-03  0.23814824D-03 -0.14344887D-05  0.10105501D-03
 -0.24098257D-04  0.18512092D-03  0.13799464D-03  0.63966875D-04  0.14957002D-04
  0.20024738D-03  0.14927035D-03  0.69193686D-04  0.16179157D-04 -0.38536830D-03
 -0.28726498D-03 -0.13316056D-03 -0.31136160D-04 -0.13044490D-01 -0.97237505D-02
 -0.45074065D-02 -0.10539407D-02  0.30891092D-02  0.23027138D-02  0.10674140D-02
  0.24958721D-03  0.16095630D-02  0.11998161D-02  0.55617006D-03  0.13004601D-03
 -0.11503952D-05  0.81700581D-06  0.33338943D-06  0.79158950D-04 -0.19175592D-04
 -0.83218691D-05 -0.50839998D-07 -0.61816759D-06  0.66900759D-06  0.41027091D-05
 -0.85416587D-06 -0.90110695D-06  0.11106877D-10  0.20741051D-10  0.35307031D-10
  0.54731815D-10  0.73702040D-10  0.55861542D-10 -0.12502420D-09 -0.29123319D-09
 -0.71038629D-10  0.65135046D-09 -0.61670864D-09  0.13917031D-09  0.10035385D-08
 -0.86719963D-08  0.12778308D-07 -0.10224240D-05  0.24414916D-06  0.60854751D-06
  0.77928420D-06  0.83382574D-06  0.66348599D-06  0.15270485D-06 -0.41278177D-04
 -0.52859358D-04 -0.56558947D-04 -0.45004690D-04 -0.10358070D-04  0.98419728D-05
  0.12603279D-04  0.13485373D-04  0.10730487D-04  0.24696790D-05 -0.48743047D-06
  0.10128817D-06  0.33077364D-04 -0.68734843D-05 -0.78866641D-05  0.16388507D-05
 -0.15521619D-06  0.10507882D-04 -0.25053786D-05  0.81073893D-07 -0.54612054D-05
  0.13020843D-05 -0.34563093D-07  0.22709810D-05 -0.54139011D-06 -0.35452667D-07
 -0.59611893D-06  0.63157159D-06  0.28456441D-05 -0.55589019D-06 -0.74485004D-06
MO    6     MO 0.0        OCC NO =    2.0000000  ORB. ENERGY =  -56.158249
 -0.16511815D-09 -0.30738277D-09 -0.50564177D-09 -0.67899203D-09 -0.63929659D-09
 -0.52535257D-10  0.55068132D-09  0.14632634D-08 -0.19725813D-11 -0.66500635D-05
 -0.62228210D-05 -0.48198154D-05 -0.12113772D-04 -0.11335506D-04 -0.87797876D-05
 -0.50401752D-04 -0.47163621D-04 -0.36530048D-04 -0.18380284D-08  0.64120469D-05
  0.11679278D-04  0.48593501D-04  0.32449978D-08  0.14089001D-05  0.25663063D-05
  0.10677531D-04  0.12638330D-07 -0.98662555D-06 -0.17879151D-05 -0.74387358D-05
  0.44017038D-05  0.98365986D-05 -0.14238302D-04  0.15932893D-05  0.31429935D-04
 -0.57683069D-04 -0.12601115D-05 -0.22730615D-05 -0.33510917D-05 -0.20917559D-04
 -0.69915277D-05  0.25998807D-04 -0.35320207D-04 -0.18270164D-04  0.20876088D-04
  0.17368606D-05  0.31330488D-05  0.46189397D-05  0.28851177D-04  0.96273876D-05
 -0.35862330D-04  0.54936405D-04  0.16844594D-04  0.20907120D-04 -0.47783073D-06
 -0.86193846D-06 -0.12707245D-05 -0.79279815D-05 -0.26534952D-05  0.98519395D-05
 -0.15133929D-04  0.95848112D-05 -0.78358868D-05  0.48024467D-08  0.89560377D-08
  0.15071690D-07  0.23730509D-07  0.31477396D-07  0.20505907D-07  0.21562268D-07
  0.36337451D-07  0.77441558D-08 -0.29251314D-07  0.85552886D-09 -0.10473813D-07
  0.69892576D-08 -0.41953949D-08  0.35825851D-08  0.84756666D-08 -0.10197790D-05
 -0.18555484D-05 -0.77205629D-05  0.11162644D+02  0.14929240D+02  0.17244424D+02
  0.20330991D+02  0.27191250D+02  0.31407991D+02  0.84592652D+02  0.11313664D+03
  0.13068155D+03  0.14353005D+02  0.67698295D+01  0.11964244D+01  0.26141729D+02
  0.12330174D+02  0.21790978D+01  0.10876982D+03  0.51303065D+02  0.90667331D+01
  0.12731040D-01  0.26595747D-01  0.16947441D-01  0.23187575D-01  0.48439946D-01
  0.30867083D-01  0.96478256D-01  0.20154766D+00  0.12843095D+00 -0.47413762D-02
 -0.86356720D-02 -0.35931077D-01  0.13150984D-02  0.23952493D-02  0.99660888D-02
 -0.13066450D-03 -0.23798788D-03 -0.99021316D-03  0.13221153D-04  0.24082244D-04
  0.10020082D-03 -0.17060959D-02 -0.12717746D-02 -0.58952616D-03 -0.13784547D-03
  0.46224751D-04  0.34457303D-04  0.15972548D-04  0.37347681D-05  0.16598712D-02
  0.12373173D-02  0.57355361D-03  0.13411071D-03 -0.30763744D-02 -0.22932209D-02
 -0.10630136D-02 -0.24855829D-03 -0.12709662D-01 -0.94741601D-02 -0.43917099D-02
 -0.10268880D-02  0.63527183D-03  0.47355051D-03  0.21951249D-03  0.51327329D-04
  0.10300625D-04  0.43807189D-06 -0.10738697D-04  0.18117916D-04  0.76642196D-04
 -0.78713105D-05  0.55095862D-06 -0.21083243D-06 -0.34012619D-06  0.11180044D-05
  0.41297541D-05  0.89736477D-06  0.84382469D-11  0.15757634D-10  0.26823872D-10
  0.41581496D-10  0.55993778D-10  0.42439786D-10 -0.94920375D-10 -0.22110890D-09
 -0.53933665D-10  0.49563052D-09 -0.47182890D-09  0.12057161D-09  0.71401761D-09
 -0.62919001D-08 -0.13519369D-06 -0.24381802D-06 -0.10148337D-05 -0.53865826D-05
 -0.68978652D-05 -0.73806419D-05 -0.58728727D-05 -0.13516731D-05 -0.98396679D-05
 -0.12600327D-04 -0.13482215D-04 -0.10727974D-04 -0.24691006D-05 -0.40947752D-04
 -0.52436228D-04 -0.56106202D-04 -0.44644435D-04 -0.10275156D-04  0.43165615D-05
 -0.89698253D-06  0.78847808D-05 -0.16384594D-05  0.32812429D-04 -0.68184308D-05
  0.13710260D-05  0.25048449D-05  0.10424000D-04 -0.71229928D-06 -0.13018813D-05
 -0.54179683D-05  0.29564454D-06  0.54145448D-06  0.22535645D-05  0.38482439D-06
 -0.20499253D-06 -0.17983186D-06  0.82121518D-06  0.29054426D-05  0.95578402D-06
MO    7     MO 0.0        OCC NO =    2.0000000  ORB. ENERGY =  -10.080973
  0.43813498D+00  0.81562893D+00  0.13417019D+01  0.18016805D+01  0.16963501D+01
  0.13940038D+00  0.37089221D+00  0.98553005D+00 -0.13285634D-02  0.29263139D-02
  0.27383089D-02  0.21209261D-02 -0.47527369D-04 -0.44473907D-04 -0.34446760D-04
 -0.37453272D-03 -0.35047035D-03 -0.27145283D-03  0.79343255D-02 -0.15390164D-02
  0.25047529D-04  0.19699212D-03 -0.14966135D-02 -0.68747987D-04  0.11194771D-05
  0.87993143D-05 -0.71553855D-03  0.11599334D-03 -0.18851526D-05 -0.14846055D-04
 -0.12871245D-02  0.65928115D-03  0.62784336D-03  0.63775620D-04  0.49856794D-03
 -0.81689675D-05  0.52742525D-04  0.95139990D-04  0.14026142D-03 -0.12687491D-02
  0.73213918D-03  0.86705317D-04 -0.29202342D-03 -0.12039500D-02  0.19920235D-02
  0.52740887D-04  0.95137035D-04  0.14025707D-03 -0.12687836D-02  0.73214854D-03
  0.86703491D-04 -0.79248019D-03 -0.10641387D-02 -0.19346088D-02  0.52744248D-04
  0.95143099D-04  0.14026601D-03 -0.12686959D-02  0.73212300D-03  0.86706664D-04
 -0.47170384D-03  0.22934751D-02  0.14179936D-03  0.15077235D-05  0.28117394D-05
  0.47317424D-05  0.74501704D-05  0.98822980D-05  0.64378097D-05 -0.15934971D-05
 -0.26854143D-05 -0.57230946D-06  0.53800747D-04 -0.11339433D-03  0.13904022D-03
 -0.11196749D-03 -0.55319141D-04  0.22267691D-03 -0.10128257D-03  0.15646400D-04
 -0.25882532D-06 -0.20044533D-05 -0.68448533D-05 -0.91545030D-05 -0.10574157D-04
  0.13643446D-06  0.18247135D-06  0.21076849D-06  0.88594866D-06  0.11848931D-05
  0.13686430D-05  0.70258561D-03  0.33138599D-03  0.58565475D-04 -0.11401711D-04
 -0.53778035D-05 -0.95041318D-06 -0.89917538D-04 -0.42411078D-04 -0.74952621D-05
 -0.12762442D-03 -0.26661348D-03 -0.16989244D-03  0.20748380D-05  0.43344352D-05
  0.27620050D-05  0.16334944D-04  0.34124475D-04  0.21744925D-04  0.52449431D-03
 -0.85264937D-05 -0.67131003D-04 -0.19226903D-03  0.31042974D-05  0.24600359D-04
 -0.13200622D-03  0.21725025D-05  0.16906319D-04 -0.70738533D-04  0.11511835D-05
  0.90543827D-05  0.14463910D-02  0.10781829D-02  0.49978745D-03  0.11686239D-03
 -0.74086491D-03 -0.55226273D-03 -0.25599923D-03 -0.59858811D-04 -0.70552610D-03
 -0.52592013D-03 -0.24378822D-03 -0.57003582D-04 -0.71343460D-04 -0.53181536D-04
 -0.24652093D-04 -0.57642556D-05 -0.56010500D-03 -0.41751892D-03 -0.19353926D-03
 -0.45254161D-04  0.91495363D-05  0.68203364D-05  0.31615403D-05  0.73924458D-06
 -0.22292745D-03  0.11418524D-03  0.10874221D-03  0.11007792D-04  0.86333110D-04
 -0.14107941D-05  0.15088915D-03 -0.77285526D-04 -0.73603619D-04 -0.74578702D-05
 -0.58438548D-04  0.95529525D-06 -0.17445099D-07 -0.32577085D-07 -0.55455250D-07
 -0.85964930D-07 -0.11576065D-06 -0.87739344D-07 -0.21827243D-05 -0.50844698D-05
 -0.12402219D-05  0.16267208D-04 -0.23264192D-04  0.43041127D-04 -0.39026094D-04
  0.17220863D-03  0.26978606D-04 -0.43138201D-06 -0.34499665D-05 -0.50748065D-03
 -0.64986159D-03 -0.69534493D-03 -0.55329500D-03 -0.12734381D-03  0.81526629D-05
  0.10440009D-04  0.11170697D-04  0.88886693D-05  0.20457748D-05  0.64911158D-04
  0.83122910D-04  0.88940623D-04  0.70771211D-04  0.16288373D-04  0.27811950D-03
 -0.57793301D-04 -0.44652768D-05  0.92788560D-06 -0.35572747D-04  0.73920255D-05
  0.17741043D-03 -0.28558828D-05 -0.22694766D-04 -0.10030520D-03  0.16179269D-05
  0.12832651D-04  0.20123950D-04 -0.32033486D-06 -0.25727393D-05 -0.38447817D-04