 Single Point Energy
GAUSSIAN             31 MOL ORBITALS    210 PRIMITIVES        6 NUCLEI   B3LYP
  C    1    (CENTRE  1)  -2.56536168  0.03577524  0.30346542  CHARGE =  6.0
  H    2    (CENTRE  2)  -1.76524480 -1.00589348  1.87167716  CHARGE =  1.0
  H    3    (CENTRE  3)  -2.15921247 -0.88618593 -1.47686363  CHARGE =  1.0
  H    4    (CENTRE  4)  -1.91036097  1.97367391  0.29566142  CHARGE =  1.0
  Br   5    (CENTRE  5)   3.54354937 -0.04919533 -0.41896027  CHARGE = 35.0
  Cl   6    (CENTRE  6)  -6.04689646  0.08385826  0.71484364  CHARGE = 17.0
CENTRE ASSIGNMENTS    1  1  1  1  1  1  1  1  1  1  1  1  1  1  1  1  1  1  1  1
CENTRE ASSIGNMENTS    1  1  1  1  1  1  1  1  1  1  1  1  1  1  1  1  2  2  2  2
CENTRE ASSIGNMENTS    2  2  2  2  2  3  3  3  3  3  3  3  3  3  4  4  4  4  4  4
CENTRE ASSIGNMENTS    4  4  4  5  5  5  5  5  5  5  5  5  5  5  5  5  5  5  5  5
CENTRE ASSIGNMENTS    5  5  5  5  5  5  5  5  5  5  5  5  5  5  5  5  5  5  5  5
CENTRE ASSIGNMENTS    5  5  5  5  5  5  5  5  5  5  5  5  5  5  5  5  5  5  5  5
CENTRE ASSIGNMENTS    5  5  5  5  5  5  5  5  5  5  5  5  5  5  5  5  5  5  5  5
CENTRE ASSIGNMENTS    5  5  5  5  5  5  5  5  5  5  5  5  5  5  5  5  5  6  6  6
CENTRE ASSIGNMENTS    6  6  6  6  6  6  6  6  6  6  6  6  6  6  6  6  6  6  6  6
CENTRE ASSIGNMENTS    6  6  6  6  6  6  6  6  6  6  6  6  6  6  6  6  6  6  6  6
CENTRE ASSIGNMENTS    6  6  6  6  6  6  6  6  6  6
TYPE ASSIGNMENTS      1  1  1  1  1  1  1  1  1  2  2  2  3  3  3  4  4  4  1  2
TYPE ASSIGNMENTS      3  4  1  2  3  4  1  2  3  4  5  6  7  8  9 10  1  1  1  1
TYPE ASSIGNMENTS      1  1  2  3  4  1  1  1  1  1  1  2  3  4  1  1  1  1  1  1
TYPE ASSIGNMENTS      2  3  4  1  1  1  1  1  1  1  1  1  1  1  1  1  1  1  1  2
TYPE ASSIGNMENTS      3  4  2  2  2  3  3  3  4  4  4  2  2  2  3  3  3  4  4  4
TYPE ASSIGNMENTS      2  2  2  3  3  3  4  4  4  2  3  4  2  3  4  2  3  4  2  3
TYPE ASSIGNMENTS      4  5  5  5  5  6  6  6  6  7  7  7  7  8  8  8  8  9  9  9
TYPE ASSIGNMENTS      9 10 10 10 10  5  6  7  8  9 10  5  6  7  8  9 10  1  1  1
TYPE ASSIGNMENTS      1  1  1  1  1  1  1  1  1  1  1  2  3  4  2  2  2  2  2  3
TYPE ASSIGNMENTS      3  3  3  3  4  4  4  4  4  2  2  3  3  4  4  2  3  4  2  3
TYPE ASSIGNMENTS      4  2  3  4  5  6  7  8  9 10
EXPONENTS  0.4563240D+04 0.6820240D+03 0.1549730D+03 0.4445530D+02 0.1302900D+02
EXPONENTS  0.1827730D+01 0.2096420D+02 0.4803310D+01 0.1459330D+01 0.2096420D+02
EXPONENTS  0.4803310D+01 0.1459330D+01 0.2096420D+02 0.4803310D+01 0.1459330D+01
EXPONENTS  0.2096420D+02 0.4803310D+01 0.1459330D+01 0.4834560D+00 0.4834560D+00
EXPONENTS  0.4834560D+00 0.4834560D+00 0.1455850D+00 0.1455850D+00 0.1455850D+00
EXPONENTS  0.1455850D+00 0.4380000D-01 0.4380000D-01 0.4380000D-01 0.4380000D-01
EXPONENTS  0.6260000D+00 0.6260000D+00 0.6260000D+00 0.6260000D+00 0.6260000D+00
EXPONENTS  0.6260000D+00 0.3386500D+02 0.5094790D+01 0.1158790D+01 0.3258400D+00
EXPONENTS  0.1027410D+00 0.3600000D-01 0.7500000D+00 0.7500000D+00 0.7500000D+00
EXPONENTS  0.3386500D+02 0.5094790D+01 0.1158790D+01 0.3258400D+00 0.1027410D+00
EXPONENTS  0.3600000D-01 0.7500000D+00 0.7500000D+00 0.7500000D+00 0.3386500D+02
EXPONENTS  0.5094790D+01 0.1158790D+01 0.3258400D+00 0.1027410D+00 0.3600000D-01
EXPONENTS  0.7500000D+00 0.7500000D+00 0.7500000D+00 0.4397000D+06 0.6603000D+05
EXPONENTS  0.1514000D+05 0.4317000D+04 0.1414000D+04 0.5239000D+03 0.5239000D+03
EXPONENTS  0.2077000D+03 0.8654000D+02 0.3052000D+02 0.1298000D+02 0.4412000D+01
EXPONENTS  0.1862000D+01 0.3932000D+00 0.1400000D+00 0.3500000D-01 0.3500000D-01
EXPONENTS  0.3500000D-01 0.3500000D-01 0.2957000D+04 0.7003000D+03 0.2246000D+03
EXPONENTS  0.2957000D+04 0.7003000D+03 0.2246000D+03 0.2957000D+04 0.7003000D+03
EXPONENTS  0.2246000D+03 0.8259000D+02 0.3319000D+02 0.1420000D+02 0.8259000D+02
EXPONENTS  0.3319000D+02 0.1420000D+02 0.8259000D+02 0.3319000D+02 0.1420000D+02
EXPONENTS  0.1420000D+02 0.7438000D+01 0.3526000D+01 0.1420000D+02 0.7438000D+01
EXPONENTS  0.3526000D+01 0.1420000D+02 0.7438000D+01 0.3526000D+01 0.1595000D+01
EXPONENTS  0.1595000D+01 0.1595000D+01 0.8462000D+00 0.8462000D+00 0.8462000D+00
EXPONENTS  0.3186000D+00 0.3186000D+00 0.3186000D+00 0.1096000D+00 0.1096000D+00
EXPONENTS  0.1096000D+00 0.1348000D+03 0.3639000D+02 0.1216000D+02 0.4341000D+01
EXPONENTS  0.1348000D+03 0.3639000D+02 0.1216000D+02 0.4341000D+01 0.1348000D+03
EXPONENTS  0.3639000D+02 0.1216000D+02 0.4341000D+01 0.1348000D+03 0.3639000D+02
EXPONENTS  0.1216000D+02 0.4341000D+01 0.1348000D+03 0.3639000D+02 0.1216000D+02
EXPONENTS  0.4341000D+01 0.1348000D+03 0.3639000D+02 0.1216000D+02 0.4341000D+01
EXPONENTS  0.1535000D+01 0.1535000D+01 0.1535000D+01 0.1535000D+01 0.1535000D+01
EXPONENTS  0.1535000D+01 0.4510000D+00 0.4510000D+00 0.4510000D+00 0.4510000D+00
EXPONENTS  0.4510000D+00 0.4510000D+00 0.1058190D+06 0.1587200D+05 0.3619650D+04
EXPONENTS  0.1030800D+04 0.3399080D+03 0.1245380D+03 0.1245380D+03 0.4951350D+02
EXPONENTS  0.2080560D+02 0.6583460D+01 0.2564680D+01 0.5597630D+00 0.1832730D+00
EXPONENTS  0.4830000D-01 0.4830000D-01 0.4830000D-01 0.4830000D-01 0.5897760D+03
EXPONENTS  0.1398490D+03 0.4514130D+02 0.1687330D+02 0.2771520D+01 0.5897760D+03
EXPONENTS  0.1398490D+03 0.4514130D+02 0.1687330D+02 0.2771520D+01 0.5897760D+03
EXPONENTS  0.1398490D+03 0.4514130D+02 0.1687330D+02 0.2771520D+01 0.6741100D+01
EXPONENTS  0.2771520D+01 0.6741100D+01 0.2771520D+01 0.6741100D+01 0.2771520D+01
EXPONENTS  0.1023870D+01 0.1023870D+01 0.1023870D+01 0.3813680D+00 0.3813680D+00
EXPONENTS  0.3813680D+00 0.1094370D+00 0.1094370D+00 0.1094370D+00 0.7500000D+00
EXPONENTS  0.7500000D+00 0.7500000D+00 0.7500000D+00 0.7500000D+00 0.7500000D+00
MO    1     MO 0.0        OCC NO =    2.0000000  ORB. ENERGY = -482.554100
  0.21846712D-07  0.40669682D-07  0.66901244D-07  0.89837142D-07  0.84585056D-07
  0.69509171D-08 -0.40809224D-07 -0.10843775D-06  0.14618166D-09  0.31375127D-05
  0.29359388D-05  0.22739981D-05 -0.43434547D-07 -0.40644035D-07 -0.31480376D-07
 -0.37086906D-06 -0.34704207D-06 -0.26879750D-06 -0.22446595D-06 -0.25553525D-05
  0.35653754D-07  0.30232988D-06  0.19418787D-05  0.28433629D-05 -0.39169171D-07
 -0.33584002D-06  0.47953120D-05  0.65901471D-06 -0.91509803D-08 -0.77891987D-07
 -0.36756755D-06  0.18778038D-06  0.17978718D-06  0.15536133D-07  0.13148076D-06
 -0.20740571D-08  0.20504441D-06  0.36987086D-06  0.54528714D-06 -0.18875933D-05
 -0.19347739D-05 -0.17381908D-05 -0.12245002D-05 -0.66392403D-06  0.12426931D-05
  0.20498514D-06  0.36976396D-06  0.54512953D-06 -0.18873340D-05 -0.19341245D-05
 -0.17386601D-05 -0.14838928D-05 -0.58418235D-06 -0.96767172D-06  0.20507728D-06
  0.36993016D-06  0.54537456D-06 -0.18876543D-05 -0.19350161D-05 -0.17378907D-05
 -0.13206927D-05  0.13045644D-05  0.20186130D-06  0.38584360D+01  0.71955611D+01
  0.12109067D+02  0.19065834D+02  0.25289925D+02  0.16475088D+02  0.96359573D+01
  0.16238836D+02  0.34607841D+01  0.81716341D-01 -0.11300544D-01  0.24771690D-02
 -0.63716477D-03  0.67770843D-04 -0.18939989D-04  0.22669703D-05 -0.34484195D-06
  0.47698093D-08  0.40756104D-07 -0.12794585D-03 -0.17111845D-03 -0.19765501D-03
  0.17734292D-05  0.23718351D-05  0.27396526D-05  0.15123690D-04  0.20226856D-04
  0.23363579D-04 -0.34762065D-04 -0.16396097D-04 -0.28976637D-05  0.48731414D-06
  0.22984969D-06  0.40621077D-07  0.41120984D-05  0.19395385D-05  0.34277245D-06
  0.25893638D-05  0.54093040D-05  0.34469368D-05 -0.36175178D-07 -0.75571665D-07
 -0.48156058D-07 -0.30632718D-06 -0.63993204D-06 -0.40777988D-06 -0.90594988D-05
  0.12650626D-06  0.10717666D-05  0.71743269D-05 -0.10015451D-06 -0.84873411D-06
 -0.31544173D-05  0.44007490D-07  0.37315240D-06  0.16122659D-05 -0.22467214D-07
 -0.19070201D-06 -0.39649629D-04 -0.29556012D-04 -0.13700574D-04 -0.32035255D-05
  0.20237308D-04  0.15085491D-04  0.69928204D-05  0.16350905D-05  0.19412321D-04
  0.14470521D-04  0.67077535D-05  0.15684350D-05  0.16755620D-05  0.12490137D-05
  0.57897544D-06  0.13537846D-06  0.14175603D-04  0.10566916D-04  0.48982527D-05
  0.11453299D-05 -0.19680043D-06 -0.14670089D-06 -0.68002623D-07 -0.15900658D-07
  0.30888149D-05 -0.15765515D-05 -0.15122634D-05 -0.13052013D-06 -0.11043203D-05
  0.15341644D-07 -0.72646350D-06  0.37079205D-06  0.35567144D-06  0.30693871D-07
  0.25972445D-06 -0.36085596D-08  0.61206407D-07  0.11429722D-06  0.19456563D-06
  0.30160933D-06  0.40614810D-06  0.30783489D-06 -0.22255910D-06 -0.51843239D-06
 -0.12645786D-06  0.82394503D-06 -0.77665658D-06  0.44555121D-06  0.87959967D-07
  0.25541914D-05  0.18399266D-06 -0.25316651D-08 -0.21734316D-07 -0.75370212D-06
 -0.96516400D-06 -0.10327151D-05 -0.82174487D-06 -0.18912898D-06  0.93281586D-08
  0.11945307D-07  0.12781350D-07  0.10170286D-07  0.23407459D-08  0.88128462D-07
  0.11285416D-06  0.12075274D-06  0.96084526D-07  0.22114368D-07  0.62083574D-06
 -0.12900982D-06 -0.76119522D-08  0.15817655D-08 -0.72530471D-07  0.15071850D-07
  0.16132762D-06 -0.19886675D-08 -0.18857347D-07  0.15391556D-06 -0.22383208D-08
 -0.18281547D-07  0.81813783D-06 -0.11262598D-07 -0.96649381D-07  0.61808887D-06
 -0.31544371D-06 -0.30264515D-06 -0.25695957D-07 -0.22060793D-06  0.29978519D-08
MO    2     MO 0.0        OCC NO =    2.0000000  ORB. ENERGY = -101.415362
  0.18781198D-05  0.34962944D-05  0.57513714D-05  0.77231266D-05  0.72716148D-05
  0.59755700D-06 -0.44297668D-05 -0.11770720D-04  0.15867753D-07 -0.52284908D-04
 -0.48925792D-04 -0.37894917D-04  0.72366509D-06  0.67717223D-06  0.52449606D-06
  0.61788846D-05  0.57819136D-05  0.44783156D-05 -0.48430275D-05  0.27540937D-04
 -0.38234568D-06 -0.32552861D-05  0.59402674D-04 -0.25034686D-04  0.34587531D-06
  0.29584824D-05 -0.12242272D-03  0.26380195D-04 -0.36461892D-06 -0.31174191D-05
 -0.14828581D-04  0.75685396D-05  0.72600416D-05  0.61692173D-06  0.52931299D-05
 -0.72599728D-07  0.77403278D-06  0.13962447D-05  0.20584327D-05 -0.24273970D-04
  0.30106976D-05  0.33704305D-05  0.14548712D-04 -0.94709979D-05  0.13237091D-04
  0.77400192D-06  0.13961890D-05  0.20583507D-05 -0.24274061D-04  0.30107659D-05
  0.33714346D-05  0.11007283D-04 -0.83942908D-05 -0.16883153D-04  0.77397287D-06
  0.13961366D-05  0.20582734D-05 -0.24273079D-04  0.30107263D-05  0.33697926D-05
  0.13241349D-04  0.17328297D-04 -0.93889910D-06  0.31415652D-07  0.58586755D-07
  0.98592862D-07  0.15523534D-06  0.20591232D-06  0.13414130D-06 -0.10836064D-05
 -0.18261296D-05 -0.38918063D-06  0.65998708D-05 -0.93343112D-05  0.89472968D-05
 -0.63250506D-05  0.45712759D-05 -0.58856391D-05 -0.11683867D-04  0.18575372D-05
 -0.26000471D-07 -0.21983539D-06  0.62980782D-05  0.84232304D-05  0.97294810D-05
 -0.89832062D-07 -0.12014398D-06 -0.13877556D-06 -0.74687459D-06 -0.99889149D-06
 -0.11537967D-05 -0.19639648D-04 -0.92633612D-05 -0.16371034D-05  0.28031732D-06
  0.13221625D-06  0.23366429D-07  0.23291970D-05  0.10986038D-05  0.19415502D-06
  0.23789012D-05  0.49696376D-05  0.31667710D-05 -0.33968462D-07 -0.70961731D-07
 -0.45218499D-07 -0.28214334D-06 -0.58941084D-06 -0.37558657D-06 -0.81424073D-05
  0.11653525D-06  0.96596298D-06  0.56072151D-05 -0.80555767D-07 -0.66549152D-06
 -0.15655900D-05  0.22768768D-07  0.18607647D-06  0.21304740D-05 -0.30016239D-07
 -0.25231076D-06  0.83347188D-04  0.62129472D-04  0.28799874D-04  0.67341071D-05
 -0.42538109D-04 -0.31709171D-04 -0.14698662D-04 -0.34369027D-05 -0.40809080D-04
 -0.30420301D-04 -0.14101212D-04 -0.32972044D-05 -0.34420321D-05 -0.25657930D-05
 -0.11893633D-05 -0.27810191D-06 -0.29719449D-04 -0.22153761D-04 -0.10269289D-04
 -0.24012082D-05  0.40508680D-06  0.30196374D-06  0.13997411D-06  0.32729333D-07
 -0.63741394D-05  0.32531774D-05  0.31209621D-05  0.26319596D-06  0.22728084D-05
 -0.30965671D-07  0.14124580D-05 -0.72086823D-06 -0.69158979D-06 -0.58246763D-07
 -0.50355694D-06  0.68429347D-08  0.12702089D+01  0.23719960D+01  0.40377962D+01
  0.62592607D+01  0.84287409D+01  0.63884590D+01  0.23318112D+01  0.54317550D+01
  0.13249329D+01  0.43928376D-01 -0.57172520D-02  0.69108814D-03 -0.22959712D-03
  0.15300828D-03  0.23362530D-04 -0.32239852D-06 -0.27602464D-05  0.93080102D-03
  0.11919505D-02  0.12753743D-02  0.10148319D-02  0.23356900D-03 -0.12853044D-04
 -0.16459148D-04 -0.17611112D-04 -0.14013391D-04 -0.32252570D-05 -0.10997826D-03
 -0.14083423D-03 -0.15069112D-03 -0.11990688D-03 -0.27597211D-04 -0.19360856D-03
  0.40231907D-04  0.26729609D-05 -0.55544193D-06  0.22875715D-04 -0.47535792D-05
 -0.69327107D-04  0.95709780D-06  0.81911637D-05  0.58624926D-05 -0.80822019D-07
 -0.69256816D-06 -0.19887796D-04  0.27456511D-06  0.23497976D-05 -0.15260559D-04
  0.77890647D-05  0.74714941D-05  0.63719505D-06  0.54482775D-05 -0.75359229D-07
MO    3     MO 0.0        OCC NO =    2.0000000  ORB. ENERGY =  -62.207065
  0.25020075D-06  0.46577192D-06  0.76619044D-06  0.10288652D-05  0.96871534D-06
  0.79605788D-07 -0.49022692D-06 -0.13026247D-05  0.17560291D-08  0.43294616D-04
  0.40513093D-04  0.31378957D-04 -0.59937635D-06 -0.56086858D-06 -0.43441440D-06
 -0.51176380D-05 -0.47888482D-05 -0.37091481D-05 -0.33563508D-05 -0.36047500D-04
  0.50286745D-06  0.42647601D-05  0.27429581D-04  0.40250826D-04 -0.55448113D-06
 -0.47541713D-05  0.69032564D-04  0.93365085D-05 -0.12964771D-06 -0.11035237D-05
 -0.51968537D-05  0.26549154D-05  0.25419383D-05  0.21955450D-06  0.18588198D-05
 -0.29284928D-07  0.28280550D-05  0.51014077D-05  0.75208197D-05 -0.26438146D-04
 -0.27685901D-04 -0.24883271D-04 -0.17203310D-04 -0.92325252D-05  0.17305585D-04
  0.28272344D-05  0.50999275D-05  0.75186375D-05 -0.26434609D-04 -0.27676636D-04
 -0.24889970D-04 -0.20811296D-04 -0.81233622D-05 -0.13439715D-04  0.28285089D-05
  0.51022265D-05  0.75220268D-05 -0.26438962D-04 -0.27689348D-04 -0.24878988D-04
 -0.18541336D-04  0.18148344D-04  0.28280417D-05 -0.12742146D+01 -0.23762708D+01
 -0.39989131D+01 -0.62963242D+01 -0.83517756D+01 -0.54407529D+01 -0.53839907D+01
 -0.90732801D+01 -0.19336771D+01  0.58198730D+01  0.24292469D+01  0.10304723D+00
 -0.10893219D-01  0.98408789D-03 -0.27236311D-03  0.32472277D-04 -0.49230336D-05
  0.68095704D-07  0.58184239D-06 -0.30267638D-02 -0.40480807D-02 -0.46758455D-02
  0.43145249D-04  0.57703694D-04  0.66652218D-04  0.35809318D-03  0.47892409D-03
  0.55319427D-03 -0.44473044D-02 -0.20976439D-02 -0.37071424D-03  0.63307672D-04
  0.29860099D-04  0.52771418D-05  0.52615032D-03  0.24816740D-03  0.43858347D-04
  0.19818738D-04  0.41402286D-04  0.26382519D-04 -0.27262365D-06 -0.56952376D-06
 -0.36291405D-06 -0.23442675D-05 -0.48972861D-05 -0.31206669D-05 -0.11340243D-03
  0.15818997D-05  0.13416203D-04  0.96008779D-04 -0.13404007D-05 -0.11358304D-04
 -0.44039321D-04  0.61448917D-06  0.52096817D-05  0.22828402D-04 -0.31813056D-06
 -0.27001906D-05 -0.35348757D-03 -0.26350015D-03 -0.12214446D-03 -0.28560330D-04
  0.18039883D-03  0.13447465D-03  0.62335200D-04  0.14575477D-04  0.17308874D-03
  0.12902549D-03  0.59809263D-04  0.13984852D-04  0.14947319D-04  0.11142176D-04
  0.51649120D-05  0.12076813D-05  0.12636498D-03  0.94196209D-04  0.43664285D-04
  0.10209766D-04 -0.17336192D-05 -0.12922913D-05 -0.59903658D-06 -0.14006924D-06
  0.40335342D-04 -0.20587223D-04 -0.19748119D-04 -0.17040759D-05 -0.14420591D-04
  0.20004443D-06 -0.99896434D-05  0.50987732D-05  0.48908702D-05  0.42212567D-06
  0.35715025D-05 -0.49595638D-07  0.18292935D-06  0.34160340D-06  0.58150389D-06
  0.90142848D-06  0.12138665D-05  0.92003499D-06 -0.18899632D-05 -0.44025077D-05
 -0.10738753D-05  0.99634772D-05 -0.10153374D-04  0.61826992D-05  0.11998534D-05
  0.36038547D-04  0.25778765D-05 -0.35468337D-07 -0.30451341D-06 -0.86945427D-05
 -0.11133921D-04 -0.11913176D-04 -0.94794689D-05 -0.21817505D-05  0.10763205D-06
  0.13782976D-06  0.14747636D-06  0.11734886D-06  0.27008469D-07  0.10166614D-05
  0.13019003D-05  0.13930193D-05  0.11084436D-05  0.25511423D-06  0.67280401D-05
 -0.13980884D-05 -0.82776319D-07  0.17200939D-07 -0.78627026D-06  0.16338715D-06
  0.19971191D-05 -0.24519095D-07 -0.23335796D-06  0.22419741D-05 -0.32504589D-07
 -0.26620845D-06  0.11600314D-04 -0.15969493D-06 -0.13703872D-05  0.87502455D-05
 -0.44657226D-05 -0.42845230D-05 -0.36379338D-06 -0.31231423D-05  0.42449603D-07
MO    4     MO 0.0        OCC NO =    2.0000000  ORB. ENERGY =  -56.024881
 -0.33609409D-05 -0.62567034D-05 -0.10292218D-04 -0.13820722D-04 -0.13012731D-04
 -0.10693427D-05  0.99658419D-05  0.26481108D-04 -0.35698384D-07 -0.11338139D-04
 -0.10609704D-04 -0.82176260D-05  0.16112712D-06  0.15077529D-06  0.11678129D-06
  0.13444193D-05  0.12580453D-05  0.97440468D-06 -0.27046390D-04 -0.16484145D-04
  0.22386519D-06  0.19435916D-05 -0.20756027D-04  0.81069983D-05 -0.10907780D-06
 -0.95563610D-06 -0.99533214D-04  0.39091423D-04 -0.54163638D-06 -0.46206473D-05
  0.30232686D-04 -0.15433529D-04 -0.14799158D-04 -0.12586399D-05 -0.10791906D-04
  0.15250597D-06 -0.72124426D-05 -0.13010217D-04 -0.19180490D-04  0.38223286D-04
 -0.10445269D-04  0.26781348D-05  0.11274643D-04  0.19597745D-04 -0.33220165D-04
 -0.72147582D-05 -0.13014394D-04 -0.19186648D-04  0.38235840D-04 -0.10449818D-04
  0.26831919D-05  0.18845069D-04  0.17305102D-04  0.30987429D-04 -0.72112900D-05
 -0.13008138D-04 -0.19177425D-04  0.38216526D-04 -0.10444065D-04  0.26772012D-05
  0.14048473D-04 -0.37526839D-04 -0.30007897D-05 -0.48090516D-04 -0.89683551D-04
 -0.15092418D-03 -0.23763146D-03 -0.31520687D-03 -0.20534109D-03 -0.21430090D-03
 -0.36114699D-03 -0.76966835D-04  0.28111323D-03  0.13381478D-04  0.83059732D-04
 -0.57576997D-04  0.31267295D-04 -0.20283156D-04 -0.27226813D-04 -0.37899080D-05
  0.53076533D-07  0.44882279D-06  0.87096638D+02  0.11648554D+03  0.13454979D+03
 -0.12177149D+01 -0.16286069D+01 -0.18811666D+01 -0.10309057D+02 -0.13787629D+02
 -0.15925775D+02  0.11199068D+03  0.52822236D+02  0.93352145D+01 -0.15657633D+01
 -0.73851790D+00 -0.13051744D+00 -0.13255601D+02 -0.62522212D+01 -0.11049480D+01
  0.99422859D-01  0.20769908D+00  0.13235078D+00 -0.13900446D-02 -0.29038692D-02
 -0.18504144D-02 -0.11768024D-01 -0.24583962D-01 -0.15665484D-01 -0.37170467D-01
  0.51966903D-03  0.43996006D-02  0.10379538D-01 -0.14510554D-03 -0.12285405D-02
 -0.10608543D-02  0.14828252D-04  0.12556074D-03  0.12126709D-03 -0.16942031D-05
 -0.14351614D-04 -0.77646217D-03 -0.57879798D-03 -0.26829954D-03 -0.62734922D-04
  0.39631876D-03  0.29542779D-03  0.13694440D-03  0.32020912D-04  0.38014341D-03
  0.28337020D-03  0.13135515D-03  0.30714010D-04  0.32914429D-04  0.24535394D-04
  0.11373286D-04  0.26593493D-05  0.27765033D-03  0.20696881D-03  0.95939585D-04
  0.22432995D-04 -0.39525829D-05 -0.29463728D-05 -0.13657796D-05 -0.31935230D-06
  0.28875227D-04 -0.14738417D-04 -0.14136810D-04 -0.12205638D-05 -0.10325729D-04
  0.14677941D-06 -0.63594964D-05  0.32460310D-05  0.31134654D-05  0.26876894D-06
  0.22741585D-05 -0.32114096D-07  0.15166771D-06  0.28322521D-06  0.48212800D-06
  0.74737918D-06  0.10064232D-05  0.76280594D-06 -0.16790705D-05 -0.39112513D-05
 -0.95404625D-06  0.93186398D-05 -0.10203283D-04  0.94740089D-05 -0.10656906D-04
  0.15123195D-03  0.15946358D-04 -0.21876606D-06 -0.18827657D-05 -0.71059167D-04
 -0.90995831D-04 -0.97364563D-04 -0.77474249D-04 -0.17831113D-04  0.98601979D-06
  0.12626617D-05  0.13510345D-05  0.10750357D-05  0.24742523D-06  0.84015366D-05
  0.10758708D-04  0.11511702D-04  0.91600108D-05  0.21082255D-05  0.53624944D-04
 -0.11143277D-04 -0.74425979D-06  0.15465737D-06 -0.63404312D-05  0.13175432D-05
  0.21308575D-04 -0.29551695D-06 -0.25191839D-05 -0.10924480D-04  0.15160563D-06
  0.12916361D-05  0.13113422D-04 -0.18220600D-06 -0.15505444D-05  0.13989245D-05
 -0.71394318D-06 -0.68498129D-06 -0.58555335D-07 -0.49939115D-06  0.68335805D-08
MO    5     MO 0.0        OCC NO =    2.0000000  ORB. ENERGY =  -56.024805
 -0.19999426D-09 -0.37230788D-09 -0.61244296D-09 -0.82240811D-09 -0.77432823D-09
 -0.63631706D-10  0.47868532D-09  0.12719565D-08 -0.17146862D-11  0.88045328D-06
  0.82388734D-06  0.63813259D-06  0.11929530D-05  0.11163101D-05  0.86462531D-06
  0.73344352D-05  0.68632243D-05  0.53158325D-05  0.67181698D-09 -0.19841408D-06
 -0.26712373D-06 -0.16377228D-05 -0.13514860D-07  0.98599889D-06  0.13348231D-05
  0.82083574D-05 -0.76923249D-08 -0.22437679D-06 -0.30336548D-06 -0.18659966D-05
  0.72071636D-06  0.10844785D-06 -0.82916421D-06  0.86205138D-06  0.58640834D-05
 -0.10932405D-05  0.39956865D-06  0.72076484D-06  0.10625974D-05 -0.18291690D-06
 -0.14710071D-04  0.15800166D-04 -0.94815447D-05 -0.89812576D-05  0.73215797D-05
 -0.50544357D-06 -0.91174809D-06 -0.13441570D-05  0.24842068D-06  0.18519526D-04
 -0.19879572D-04  0.13994475D-04  0.76965873D-05  0.85834432D-05  0.10239778D-06
  0.18471099D-06  0.27231269D-06 -0.42459123D-07 -0.37943782D-05  0.40796091D-05
 -0.33301822D-05  0.28611372D-05 -0.62070856D-05 -0.14791244D-09 -0.27584052D-09
 -0.46419889D-09 -0.73088528D-09 -0.96948468D-09 -0.63156949D-09 -0.13659893D-08
 -0.23020106D-08 -0.49059933D-09  0.18740403D-08 -0.15238439D-08  0.37102152D-08
 -0.24989434D-08  0.11151101D-08 -0.47959416D-09  0.11920398D-08 -0.97883181D-06
 -0.13184720D-05 -0.81124897D-05  0.10371040D+02  0.13870526D+02  0.16021528D+02
  0.13971589D+02  0.18686003D+02  0.21583776D+02  0.85969969D+02  0.11497870D+03
  0.13280927D+03  0.13335344D+02  0.62898332D+01  0.11115952D+01  0.17965020D+02
  0.84734956D+01  0.14975114D+01  0.11054235D+03  0.52139107D+02  0.92144858D+01
  0.11831871D-01  0.24717342D-01  0.15750477D-01  0.15939574D-01  0.33298528D-01
  0.21218612D-01  0.98079362D-01  0.20489245D+00  0.13056233D+00 -0.44019829D-02
 -0.59302051D-02 -0.36489702D-01  0.12177171D-02  0.16404547D-02  0.10094028D-01
 -0.11986745D-03 -0.16147592D-03 -0.99359036D-03  0.11964097D-04  0.16116479D-04
  0.99166980D-04 -0.89024617D-04 -0.66361596D-04 -0.30761659D-04 -0.71928197D-05
  0.55734293D-06  0.41545999D-06  0.19258486D-06  0.45030997D-07  0.88467274D-04
  0.65946136D-04  0.30569074D-04  0.71477888D-05 -0.11776397D-03 -0.87784764D-04
 -0.40692284D-04 -0.95148402D-05 -0.72703235D-03 -0.54195153D-03 -0.25121951D-03
 -0.58741198D-04  0.33153589D-04  0.24713671D-04  0.11455926D-04  0.26786725D-05
  0.91871277D-06  0.57137838D-07 -0.97585061D-06  0.11671749D-05  0.74922612D-05
 -0.79822926D-06 -0.77176647D-07 -0.18190339D-07  0.95366985D-07 -0.87658334D-07
 -0.62810425D-06  0.16437481D-06 -0.36134926D-10 -0.67478584D-10 -0.11486730D-09
 -0.17806356D-09 -0.23978097D-09 -0.18173900D-09  0.40299136D-09  0.93873394D-09
  0.22897930D-09 -0.21880153D-08  0.22834289D-08 -0.20460815D-08  0.22925763D-08
  0.23817640D-08 -0.10521582D-06 -0.14221355D-06 -0.87494904D-06 -0.46910324D-05
 -0.60071685D-05 -0.64276058D-05 -0.51145296D-05 -0.11771364D-05 -0.63514244D-05
 -0.81334072D-05 -0.87026585D-05 -0.69248186D-05 -0.15937841D-05 -0.39078137D-04
 -0.50042066D-04 -0.53544474D-04 -0.42606034D-04 -0.98060070D-05  0.37756577D-05
 -0.78458259D-06  0.51121523D-05 -0.10623065D-05  0.31453318D-04 -0.65360073D-05
  0.11806950D-05  0.15985717D-05  0.98354162D-05 -0.61162066D-06 -0.82823504D-06
 -0.50957335D-05  0.20156965D-06  0.27203878D-06  0.16741368D-05 -0.44821119D-07
  0.13479152D-06 -0.89970404D-07 -0.16736619D-06 -0.38388834D-06 -0.96406150D-06
MO    6     MO 0.0        OCC NO =    2.0000000  ORB. ENERGY =  -56.024805
 -0.49540250D-10 -0.92223775D-10 -0.15170724D-09 -0.20371736D-09 -0.19180758D-09
 -0.15762106D-10  0.55292653D-10  0.14692293D-09 -0.19806238D-12 -0.40644198D-07
 -0.38032955D-07 -0.29457994D-07  0.73804802D-05  0.69063110D-05  0.53492048D-05
 -0.11935372D-05 -0.11168567D-05 -0.86504872D-06  0.15649224D-08  0.80852167D-08
 -0.16428849D-05  0.26505002D-06 -0.10543007D-07 -0.46073879D-07  0.82630546D-05
 -0.13364774D-05 -0.36483378D-08  0.89585835D-08 -0.18789520D-05  0.30416929D-06
 -0.36708131D-07  0.36666352D-06 -0.32995539D-06  0.60728066D-05 -0.10737708D-05
 -0.45679426D-06 -0.35114556D-06 -0.63341649D-06 -0.93382287D-06  0.16991358D-06
  0.12883886D-04 -0.13829523D-04  0.76381893D-05  0.22932209D-06 -0.11156392D-04
 -0.17227131D-06 -0.31075286D-06 -0.45813163D-06  0.86743011D-07  0.63066682D-05
 -0.67670021D-05  0.50733112D-05 -0.37068220D-05  0.62721166D-05  0.52137673D-06
  0.94048923D-06  0.13865290D-05 -0.24168588D-06 -0.19176907D-04  0.20596759D-04
 -0.12753136D-04  0.13246941D-04  0.33019171D-05  0.14001658D-07  0.26111560D-07
  0.43941901D-07  0.69186913D-07  0.91773162D-07  0.59785502D-07  0.59131529D-07
  0.99650417D-07  0.21237273D-07 -0.70000192D-07 -0.20886253D-07 -0.24051154D-08
  0.11928055D-08 -0.71166655D-09  0.57013464D-09  0.17939446D-08  0.42049216D-07
 -0.81702488D-05  0.13226792D-05 -0.44858756D+00 -0.59995387D+00 -0.69299301D+00
  0.86584706D+02  0.11580087D+03  0.13375894D+03 -0.14017378D+02 -0.18747244D+02
 -0.21654513D+02 -0.57680518D+00 -0.27205960D+00 -0.48080788D-01  0.11133279D+03
  0.52511932D+02  0.92803748D+01 -0.18023898D+02 -0.85012661D+01 -0.15024192D+01
 -0.51176926D-03 -0.10691103D-02 -0.68126246D-03  0.98780686D-01  0.20635755D+00
  0.13149593D+00 -0.15991810D-01 -0.33407650D-01 -0.21288147D-01  0.19038742D-03
 -0.36750619D-01  0.59496309D-02 -0.52661060D-04  0.10166201D-01 -0.16458259D-02
  0.51825534D-05 -0.10006933D-02  0.16200407D-03 -0.51741412D-06  0.99875377D-04
 -0.16168891D-04  0.37445131D-05  0.27912714D-05  0.12938829D-05  0.30254112D-06
  0.64200285D-05  0.47856801D-05  0.22183833D-05  0.51871167D-06 -0.10164542D-04
 -0.75769515D-05 -0.35122663D-05 -0.82125280D-06 -0.74366528D-03 -0.55435021D-03
 -0.25696687D-03 -0.60085070D-04  0.12076613D-03  0.90022661D-04  0.41729653D-04
  0.97574021D-05  0.83934515D-04  0.62567283D-04  0.29002820D-04  0.67815606D-05
 -0.41072783D-07  0.16174015D-06 -0.12066737D-06  0.77040939D-05 -0.12970733D-05
 -0.74290517D-06  0.42336442D-08 -0.62741469D-07  0.58507825D-07 -0.65440108D-06
  0.12022056D-06  0.36182073D-07 -0.33670258D-10 -0.62876047D-10 -0.10703250D-09
 -0.16591831D-09 -0.22342614D-09 -0.16934305D-09  0.37509801D-09  0.87375876D-09
  0.21313033D-09 -0.20425539D-08  0.21458824D-08 -0.19295048D-08  0.21273797D-08
 -0.27331270D-08  0.43196365D-08 -0.88106902D-06  0.14264599D-06  0.22202005D-06
  0.28431094D-06  0.30420966D-06  0.24206358D-06  0.55712230D-07 -0.39354262D-04
 -0.50395661D-04 -0.53922818D-04 -0.42907087D-04 -0.98752959D-05  0.63682807D-05
  0.81549927D-05  0.87257548D-05  0.69431966D-05  0.15980139D-05 -0.17864342D-06
  0.37122147D-07  0.31675553D-04 -0.65821878D-05 -0.51257232D-05  0.10651265D-05
 -0.55966120D-07  0.99048810D-05 -0.16027833D-05  0.29064615D-07 -0.51316306D-05
  0.83036445D-06 -0.93604411D-08  0.16863179D-05 -0.27296185D-06 -0.44281425D-08
  0.49534265D-06 -0.49091451D-06 -0.30043350D-06 -0.55550877D-07  0.30431304D-06
MO    7     MO 0.0        OCC NO =    2.0000000  ORB. ENERGY =  -10.088076
  0.43814402D+00  0.81564577D+00  0.13417296D+01  0.18017177D+01  0.16963851D+01
  0.13940326D+00  0.37087765D+00  0.98549137D+00 -0.13285112D-02 -0.32623960D-02
 -0.30527988D-02 -0.23645107D-02  0.45200820D-04  0.42296830D-04  0.32760530D-04
  0.38562019D-03  0.36084549D-03  0.27948878D-03  0.79258029D-02  0.16699519D-02
 -0.23129277D-04 -0.19736543D-03 -0.15037888D-02  0.60852579D-04 -0.84551251D-06
 -0.71938399D-05 -0.70185223D-03 -0.69205269D-04  0.96465359D-06  0.81820306D-05
 -0.12076997D-02  0.61645121D-03  0.59124852D-03  0.50248861D-04  0.43105942D-03
 -0.59322629D-05  0.56346229D-04  0.10164056D-03  0.14984497D-03 -0.12827508D-02
  0.72729502D-03  0.32680858D-04  0.76575631D-03 -0.12154065D-02  0.18534299D-02
  0.56345657D-04  0.10163953D-03  0.14984345D-03 -0.12828015D-02  0.72731738D-03
  0.32668309D-04  0.30517110D-03 -0.10755003D-02 -0.20613609D-02  0.56344490D-04
  0.10163742D-03  0.14984035D-03 -0.12827219D-02  0.72727963D-03  0.32672570D-04
  0.59611532D-03  0.22678691D-02  0.10937041D-04 -0.11291777D-06 -0.21057929D-06
 -0.35437386D-06 -0.55796479D-06 -0.74011385D-06 -0.48214617D-06  0.16374314D-05
  0.27594538D-05  0.58808858D-06 -0.15435071D-04  0.27488430D-04 -0.32065216D-04
  0.21929834D-04  0.52291370D-05  0.14432236D-04  0.10131400D-03 -0.17270673D-04
  0.24065727D-06  0.20426636D-05  0.15871639D-03  0.21227185D-03  0.24519036D-03
 -0.22245837D-05 -0.29752220D-05 -0.34366109D-05 -0.18785387D-04 -0.25124116D-04
 -0.29020292D-04  0.57805589D-03  0.27264952D-03  0.48185043D-04 -0.81027117D-05
 -0.38217765D-05 -0.67541827D-06 -0.68418165D-04 -0.32270547D-04 -0.57031375D-05
 -0.81446660D-04 -0.17014594D-03 -0.10842103D-03  0.11415747D-05  0.23848038D-05
  0.15196535D-05  0.96398773D-05  0.20138162D-04  0.12832515D-04  0.35493844D-03
 -0.49722888D-05 -0.42007470D-04 -0.29570445D-03  0.41400727D-05  0.34994787D-04
  0.98670213D-04 -0.13825686D-05 -0.11677941D-04 -0.24171668D-04  0.34247516D-06
  0.28643158D-05 -0.11132547D-02 -0.82985318D-03 -0.38467520D-03 -0.89946365D-04
  0.56829182D-03  0.42362162D-03  0.19636814D-03  0.45915621D-04  0.54496292D-03
  0.40623157D-03  0.18830705D-03  0.44030744D-04  0.46194965D-04  0.34435100D-04
  0.15962256D-04  0.37323615D-05  0.39724984D-03  0.29612184D-03  0.13726612D-03
  0.32096139D-04 -0.56032413D-05 -0.41768226D-05 -0.19361498D-05 -0.45271865D-06
  0.10875343D-03 -0.55516051D-04 -0.53237384D-04 -0.45128741D-05 -0.38807169D-04
  0.54712736D-06 -0.36176754D-04  0.18467152D-04  0.17709602D-04  0.15015795D-05
  0.12909305D-04 -0.18166084D-06 -0.11462070D-04 -0.21404340D-04 -0.36436133D-04
 -0.56482112D-04 -0.76058996D-04 -0.57647967D-04 -0.50288957D-04 -0.11714383D-03
 -0.28574137D-04  0.14697333D-03 -0.10293919D-03 -0.12447259D-04  0.22521988D-03
  0.92179574D-04  0.80077383D-05 -0.11545513D-06 -0.95004463D-06 -0.15052146D-02
 -0.19275240D-02 -0.20624301D-02 -0.16411024D-02 -0.37770851D-03  0.20786011D-04
  0.26617822D-04  0.28480785D-04  0.22662531D-04  0.52159028D-05  0.17785202D-03
  0.22775094D-03  0.24369107D-03  0.19390815D-03  0.44628999D-04  0.83019367D-03
 -0.17251445D-03 -0.11464806D-04  0.23823895D-05 -0.98093539D-04  0.20383861D-04
  0.23796625D-03 -0.32842263D-05 -0.28115658D-04  0.13143384D-03 -0.18177371D-05
 -0.15532635D-04  0.76944296D-04 -0.10605000D-05 -0.90894884D-05  0.21862018D-03