 Single Point Energy
GAUSSIAN             31 MOL ORBITALS    210 PRIMITIVES        6 NUCLEI   B3LYP
  C    1    (CENTRE  1)  -0.91056657  0.03765735  0.18636347  CHARGE =  6.0
  H    2    (CENTRE  2)  -1.02755166 -1.01128794  1.92626455  CHARGE =  1.0
  H    3    (CENTRE  3)  -1.71239552 -0.86726466 -1.45052062  CHARGE =  1.0
  H    4    (CENTRE  4)  -1.22760357  2.04223355  0.33616131  CHARGE =  1.0
  Br   5    (CENTRE  5)   3.15260030 -0.12906156 -0.64483735  CHARGE = 35.0
  Cl   6    (CENTRE  6)  -5.93588589  0.24279585  1.21407183  CHARGE = 17.0
CENTRE ASSIGNMENTS    1  1  1  1  1  1  1  1  1  1  1  1  1  1  1  1  1  1  1  1
CENTRE ASSIGNMENTS    1  1  1  1  1  1  1  1  1  1  1  1  1  1  1  1  2  2  2  2
CENTRE ASSIGNMENTS    2  2  2  2  2  3  3  3  3  3  3  3  3  3  4  4  4  4  4  4
CENTRE ASSIGNMENTS    4  4  4  5  5  5  5  5  5  5  5  5  5  5  5  5  5  5  5  5
CENTRE ASSIGNMENTS    5  5  5  5  5  5  5  5  5  5  5  5  5  5  5  5  5  5  5  5
CENTRE ASSIGNMENTS    5  5  5  5  5  5  5  5  5  5  5  5  5  5  5  5  5  5  5  5
CENTRE ASSIGNMENTS    5  5  5  5  5  5  5  5  5  5  5  5  5  5  5  5  5  5  5  5
CENTRE ASSIGNMENTS    5  5  5  5  5  5  5  5  5  5  5  5  5  5  5  5  5  6  6  6
CENTRE ASSIGNMENTS    6  6  6  6  6  6  6  6  6  6  6  6  6  6  6  6  6  6  6  6
CENTRE ASSIGNMENTS    6  6  6  6  6  6  6  6  6  6  6  6  6  6  6  6  6  6  6  6
CENTRE ASSIGNMENTS    6  6  6  6  6  6  6  6  6  6
TYPE ASSIGNMENTS      1  1  1  1  1  1  1  1  1  2  2  2  3  3  3  4  4  4  1  2
TYPE ASSIGNMENTS      3  4  1  2  3  4  1  2  3  4  5  6  7  8  9 10  1  1  1  1
TYPE ASSIGNMENTS      1  1  2  3  4  1  1  1  1  1  1  2  3  4  1  1  1  1  1  1
TYPE ASSIGNMENTS      2  3  4  1  1  1  1  1  1  1  1  1  1  1  1  1  1  1  1  2
TYPE ASSIGNMENTS      3  4  2  2  2  3  3  3  4  4  4  2  2  2  3  3  3  4  4  4
TYPE ASSIGNMENTS      2  2  2  3  3  3  4  4  4  2  3  4  2  3  4  2  3  4  2  3
TYPE ASSIGNMENTS      4  5  5  5  5  6  6  6  6  7  7  7  7  8  8  8  8  9  9  9
TYPE ASSIGNMENTS      9 10 10 10 10  5  6  7  8  9 10  5  6  7  8  9 10  1  1  1
TYPE ASSIGNMENTS      1  1  1  1  1  1  1  1  1  1  1  2  3  4  2  2  2  2  2  3
TYPE ASSIGNMENTS      3  3  3  3  4  4  4  4  4  2  2  3  3  4  4  2  3  4  2  3
TYPE ASSIGNMENTS      4  2  3  4  5  6  7  8  9 10
EXPONENTS  0.4563240D+04 0.6820240D+03 0.1549730D+03 0.4445530D+02 0.1302900D+02
EXPONENTS  0.1827730D+01 0.2096420D+02 0.4803310D+01 0.1459330D+01 0.2096420D+02
EXPONENTS  0.4803310D+01 0.1459330D+01 0.2096420D+02 0.4803310D+01 0.1459330D+01
EXPONENTS  0.2096420D+02 0.4803310D+01 0.1459330D+01 0.4834560D+00 0.4834560D+00
EXPONENTS  0.4834560D+00 0.4834560D+00 0.1455850D+00 0.1455850D+00 0.1455850D+00
EXPONENTS  0.1455850D+00 0.4380000D-01 0.4380000D-01 0.4380000D-01 0.4380000D-01
EXPONENTS  0.6260000D+00 0.6260000D+00 0.6260000D+00 0.6260000D+00 0.6260000D+00
EXPONENTS  0.6260000D+00 0.3386500D+02 0.5094790D+01 0.1158790D+01 0.3258400D+00
EXPONENTS  0.1027410D+00 0.3600000D-01 0.7500000D+00 0.7500000D+00 0.7500000D+00
EXPONENTS  0.3386500D+02 0.5094790D+01 0.1158790D+01 0.3258400D+00 0.1027410D+00
EXPONENTS  0.3600000D-01 0.7500000D+00 0.7500000D+00 0.7500000D+00 0.3386500D+02
EXPONENTS  0.5094790D+01 0.1158790D+01 0.3258400D+00 0.1027410D+00 0.3600000D-01
EXPONENTS  0.7500000D+00 0.7500000D+00 0.7500000D+00 0.4397000D+06 0.6603000D+05
EXPONENTS  0.1514000D+05 0.4317000D+04 0.1414000D+04 0.5239000D+03 0.5239000D+03
EXPONENTS  0.2077000D+03 0.8654000D+02 0.3052000D+02 0.1298000D+02 0.4412000D+01
EXPONENTS  0.1862000D+01 0.3932000D+00 0.1400000D+00 0.3500000D-01 0.3500000D-01
EXPONENTS  0.3500000D-01 0.3500000D-01 0.2957000D+04 0.7003000D+03 0.2246000D+03
EXPONENTS  0.2957000D+04 0.7003000D+03 0.2246000D+03 0.2957000D+04 0.7003000D+03
EXPONENTS  0.2246000D+03 0.8259000D+02 0.3319000D+02 0.1420000D+02 0.8259000D+02
EXPONENTS  0.3319000D+02 0.1420000D+02 0.8259000D+02 0.3319000D+02 0.1420000D+02
EXPONENTS  0.1420000D+02 0.7438000D+01 0.3526000D+01 0.1420000D+02 0.7438000D+01
EXPONENTS  0.3526000D+01 0.1420000D+02 0.7438000D+01 0.3526000D+01 0.1595000D+01
EXPONENTS  0.1595000D+01 0.1595000D+01 0.8462000D+00 0.8462000D+00 0.8462000D+00
EXPONENTS  0.3186000D+00 0.3186000D+00 0.3186000D+00 0.1096000D+00 0.1096000D+00
EXPONENTS  0.1096000D+00 0.1348000D+03 0.3639000D+02 0.1216000D+02 0.4341000D+01
EXPONENTS  0.1348000D+03 0.3639000D+02 0.1216000D+02 0.4341000D+01 0.1348000D+03
EXPONENTS  0.3639000D+02 0.1216000D+02 0.4341000D+01 0.1348000D+03 0.3639000D+02
EXPONENTS  0.1216000D+02 0.4341000D+01 0.1348000D+03 0.3639000D+02 0.1216000D+02
EXPONENTS  0.4341000D+01 0.1348000D+03 0.3639000D+02 0.1216000D+02 0.4341000D+01
EXPONENTS  0.1535000D+01 0.1535000D+01 0.1535000D+01 0.1535000D+01 0.1535000D+01
EXPONENTS  0.1535000D+01 0.4510000D+00 0.4510000D+00 0.4510000D+00 0.4510000D+00
EXPONENTS  0.4510000D+00 0.4510000D+00 0.1058190D+06 0.1587200D+05 0.3619650D+04
EXPONENTS  0.1030800D+04 0.3399080D+03 0.1245380D+03 0.1245380D+03 0.4951350D+02
EXPONENTS  0.2080560D+02 0.6583460D+01 0.2564680D+01 0.5597630D+00 0.1832730D+00
EXPONENTS  0.4830000D-01 0.4830000D-01 0.4830000D-01 0.4830000D-01 0.5897760D+03
EXPONENTS  0.1398490D+03 0.4514130D+02 0.1687330D+02 0.2771520D+01 0.5897760D+03
EXPONENTS  0.1398490D+03 0.4514130D+02 0.1687330D+02 0.2771520D+01 0.5897760D+03
EXPONENTS  0.1398490D+03 0.4514130D+02 0.1687330D+02 0.2771520D+01 0.6741100D+01
EXPONENTS  0.2771520D+01 0.6741100D+01 0.2771520D+01 0.6741100D+01 0.2771520D+01
EXPONENTS  0.1023870D+01 0.1023870D+01 0.1023870D+01 0.3813680D+00 0.3813680D+00
EXPONENTS  0.3813680D+00 0.1094370D+00 0.1094370D+00 0.1094370D+00 0.7500000D+00
EXPONENTS  0.7500000D+00 0.7500000D+00 0.7500000D+00 0.7500000D+00 0.7500000D+00
MO    1     MO 0.0        OCC NO =    2.0000000  ORB. ENERGY = -482.663023
  0.43331112D-07  0.80664887D-07  0.13269298D-06  0.17818440D-06  0.16776733D-06
  0.13786559D-07 -0.85210557D-07 -0.22642040D-06  0.30523052D-09  0.23586912D-06
  0.22071538D-06  0.17095259D-06 -0.10069883D-07 -0.94229295D-08 -0.72984231D-08
 -0.48400759D-07 -0.45291185D-07 -0.35079773D-07 -0.11965832D-05  0.10303474D-05
 -0.41837823D-07 -0.21059513D-06  0.45900694D-05  0.14496242D-05 -0.59625051D-07
 -0.29659164D-06  0.59660958D-05  0.33260389D-05 -0.13620715D-06 -0.68032909D-06
  0.13195658D-06 -0.69818394D-07 -0.62138182D-07 -0.16709423D-07 -0.82929338D-07
  0.32884628D-08 -0.14027912D-06 -0.25304352D-06 -0.37305285D-06 -0.43131392D-06
 -0.15606283D-05 -0.43650382D-06 -0.10889363D-06 -0.56389835D-07  0.12187914D-06
 -0.14027581D-06 -0.25303755D-06 -0.37304405D-06 -0.43119576D-06 -0.15607819D-05
 -0.43661144D-06 -0.14817808D-06 -0.48043579D-07 -0.74038586D-07 -0.14029479D-06
 -0.25307178D-06 -0.37309451D-06 -0.43148580D-06 -0.15602257D-05 -0.43622097D-06
 -0.12155085D-06  0.12055676D-06  0.29862282D-07  0.38584362D+01  0.71955615D+01
  0.12109068D+02  0.19065835D+02  0.25289927D+02  0.16475089D+02  0.96359553D+01
  0.16238832D+02  0.34607834D+01  0.81728207D-01 -0.11316995D-01  0.24918937D-02
 -0.64710971D-03  0.74275866D-04 -0.25430434D-04 -0.44881758D-05  0.49200142D-06
 -0.20267713D-07 -0.10067274D-06 -0.16900601D-02 -0.22603348D-02 -0.26108611D-02
  0.69429248D-04  0.92856666D-04  0.10725661D-03  0.34574719D-03  0.46241220D-03
  0.53412177D-03 -0.19189981D-03 -0.90512685D-04 -0.15996205D-04  0.78878801D-05
  0.37204477D-05  0.65751054D-06  0.39259877D-04  0.18517563D-04  0.32725882D-05
  0.49960726D-05  0.10437033D-04  0.66507251D-05 -0.20562262D-06 -0.42955543D-06
 -0.27372291D-06 -0.10222222D-05 -0.21354708D-05 -0.13607727D-05 -0.12050438D-04
  0.49633299D-06  0.24657151D-05  0.87239201D-05 -0.35932184D-06 -0.17850579D-05
 -0.40640474D-05  0.16723974D-06  0.83152643D-06  0.35484115D-05 -0.14578880D-06
 -0.72595582D-06 -0.61267770D-04 -0.45670817D-04 -0.21170529D-04 -0.49501817D-05
  0.32519370D-04  0.24240906D-04  0.11236777D-04  0.26274302D-05  0.28748399D-04
  0.21429912D-04  0.99337518D-05  0.23227514D-05  0.77298030D-05  0.57620250D-05
  0.26709642D-05  0.62453602D-06  0.38444490D-04  0.28657666D-04  0.13284149D-04
  0.31061553D-05 -0.15805239D-05 -0.11781695D-05 -0.54613588D-06 -0.12769978D-06
  0.73996895D-05 -0.39276172D-05 -0.34720722D-05 -0.93283215D-06 -0.46429230D-05
  0.19079485D-06 -0.20558215D-05  0.10911952D-05  0.96462633D-06  0.25910547D-06
  0.12899008D-05 -0.52998353D-07  0.16292812D-06  0.30425298D-06  0.51792310D-06
  0.80286759D-06  0.10811441D-05  0.81943970D-06 -0.59296603D-06 -0.13812637D-05
 -0.33692272D-06  0.22043481D-05 -0.20985751D-05  0.15911944D-05 -0.20295018D-05
  0.61226008D-05  0.90604955D-06 -0.36852684D-07 -0.18525235D-06 -0.99345569D-05
 -0.12721839D-04 -0.13612231D-04 -0.10831429D-04 -0.24929114D-05  0.40480124D-06
  0.51837401D-06  0.55465463D-06  0.44134591D-06  0.10157812D-06  0.20314436D-05
  0.26013941D-05  0.27834638D-05  0.22148383D-05  0.50975690D-06  0.87089457D-05
 -0.18097210D-05 -0.35484472D-06  0.73736821D-07 -0.17808226D-05  0.37005537D-06
  0.23399356D-05 -0.95364720D-07 -0.47848177D-06 -0.13040724D-05  0.53179704D-07
  0.26667272D-06  0.88280060D-06 -0.36089305D-07 -0.18055295D-06  0.72829051D-06
 -0.38660876D-06 -0.34168176D-06 -0.90840721D-07 -0.45662233D-06  0.18588754D-07
MO    2     MO 0.0        OCC NO =    2.0000000  ORB. ENERGY = -101.275549
 -0.14554323D-06 -0.27094224D-06 -0.44569743D-06 -0.59849685D-06 -0.56350735D-06
 -0.46307150D-07  0.49921232D-06  0.13265006D-05 -0.17882155D-08 -0.13462817D-04
 -0.12597880D-04 -0.97575449D-05  0.54983920D-06  0.51451402D-06  0.39851099D-06
  0.27532892D-05  0.25764003D-05  0.19955216D-05 -0.72134579D-05  0.16613364D-04
 -0.67444773D-06 -0.33964923D-05  0.22790576D-04 -0.21449752D-04  0.87899647D-06
  0.43875898D-05 -0.98470201D-05  0.85748618D-05 -0.35036920D-06 -0.17537042D-05
 -0.32775274D-06  0.17563952D-06  0.15211322D-06  0.41888359D-07  0.20510856D-06
 -0.90929998D-08  0.26204892D-05  0.47269887D-05  0.69688273D-05 -0.24217755D-04
  0.26601703D-05 -0.51895452D-05  0.13258147D-04 -0.63403341D-05  0.67269149D-05
  0.26201359D-05  0.47263513D-05  0.69678877D-05 -0.24216747D-04  0.26615367D-05
 -0.51912437D-05  0.94892575D-05 -0.55462038D-05 -0.11844003D-04  0.26216329D-05
  0.47290517D-05  0.69718687D-05 -0.24220952D-04  0.26558898D-05 -0.51842515D-05
  0.12166417D-04  0.10468222D-04 -0.20210673D-05  0.82906454D-07  0.15461147D-06
  0.26018828D-06  0.40966876D-06  0.54340619D-06  0.35400123D-06 -0.28606167D-05
 -0.48208063D-05 -0.10273994D-05  0.17412468D-04 -0.24572542D-04  0.23323042D-04
 -0.16071039D-04  0.81596313D-05 -0.53438611D-05 -0.17196650D-05 -0.17262122D-06
  0.65852381D-08  0.35163626D-07  0.69771059D-05  0.93313815D-05  0.10778466D-04
 -0.28683013D-06 -0.38361484D-06 -0.44310473D-06 -0.14275107D-05 -0.19091938D-05
 -0.22052661D-05 -0.21141892D-04 -0.99719192D-05 -0.17623261D-05  0.86926057D-06
  0.41000097D-06  0.72459011D-07  0.43256556D-05  0.20402662D-05  0.36057396D-06
  0.26177703D-05  0.54686466D-05  0.34847514D-05 -0.10763259D-06 -0.22484960D-06
 -0.14327950D-06 -0.53559934D-06 -0.11188925D-05 -0.71298483D-06 -0.99412719D-05
  0.40878057D-06  0.20340090D-05  0.82546245D-05 -0.33943809D-06 -0.16889199D-05
 -0.42044167D-05  0.17283794D-06  0.86021703D-06 -0.23346271D-05  0.95581851D-07
  0.47752220D-06  0.19206253D-03  0.14316912D-03  0.66365486D-04  0.15517856D-04
 -0.10194523D-03 -0.75993007D-04 -0.35226262D-04 -0.82367519D-05 -0.90117298D-04
 -0.67176113D-04 -0.31139225D-04 -0.72811038D-05 -0.24167189D-04 -0.18014941D-04
 -0.83507554D-05 -0.19526086D-05 -0.12049262D-03 -0.89818783D-04 -0.41635146D-04
 -0.97353040D-05  0.49440804D-05  0.36854645D-05  0.17083827D-05  0.39946119D-06
 -0.15640446D-04  0.83018187D-05  0.73386277D-05  0.19681058D-05  0.98122419D-05
 -0.40262960D-06  0.49835788D-05 -0.26452410D-05 -0.23383378D-05 -0.62717769D-06
 -0.31265448D-05  0.12830389D-06  0.12702093D+01  0.23719968D+01  0.40377975D+01
  0.62592627D+01  0.84287436D+01  0.63884611D+01  0.23318220D+01  0.54317801D+01
  0.13249390D+01  0.43871629D-01 -0.56637926D-02  0.64873501D-03 -0.17780767D-03
  0.48021572D-04  0.96819338D-05 -0.39559460D-06 -0.19801236D-05  0.14355280D-03
  0.18382858D-03  0.19669461D-03  0.15651246D-03  0.36022181D-04 -0.58485516D-05
 -0.74894462D-05 -0.80136272D-05 -0.63765474D-05 -0.14675965D-05 -0.29360285D-04
 -0.37597732D-04 -0.40229170D-04 -0.32010874D-04 -0.73674741D-05 -0.47353452D-04
  0.98400588D-05  0.19332934D-05 -0.40173884D-06  0.96869202D-05 -0.20129444D-05
 -0.19119359D-04  0.77994861D-06  0.39104757D-05  0.12129873D-04 -0.49507291D-06
 -0.24807174D-05 -0.13002250D-04  0.53092443D-06  0.26590977D-05 -0.94061380D-05
  0.49925795D-05  0.44135585D-05  0.11766827D-05  0.58988889D-05 -0.24056078D-06
MO    3     MO 0.0        OCC NO =    2.0000000  ORB. ENERGY =  -62.315948
  0.50160435D-06  0.93378305D-06  0.15360643D-05  0.20626766D-05  0.19420878D-05
  0.15959428D-06 -0.11044898D-05 -0.29348362D-05  0.39563642D-08  0.40387151D-05
  0.37792422D-05  0.29271692D-05 -0.17106903D-06 -0.16007847D-06 -0.12398696D-06
 -0.82823491D-06 -0.77502381D-06 -0.60028590D-06 -0.16256982D-04  0.13843855D-04
 -0.56201128D-06 -0.28295251D-05  0.64020907D-04  0.20130408D-04 -0.82803208D-06
 -0.41186760D-05  0.85070727D-04  0.47131751D-04 -0.19301295D-05 -0.96406271D-05
  0.93275668D-06 -0.49206482D-06 -0.44069186D-06 -0.11888361D-06 -0.58717902D-06
  0.22548967D-07 -0.20072860D-05 -0.36208576D-05 -0.53380986D-05 -0.59103516D-05
 -0.22235552D-04 -0.63029822D-05 -0.13388082D-05 -0.88853812D-06  0.18171974D-05
 -0.20072439D-05 -0.36207816D-05 -0.53379865D-05 -0.59087298D-05 -0.22237715D-04
 -0.63045188D-05 -0.19482594D-05 -0.75921400D-06 -0.12186678D-05 -0.20074971D-05
 -0.36212383D-05 -0.53386597D-05 -0.59126913D-05 -0.22229903D-04 -0.62989183D-05
 -0.15332970D-05  0.18536034D-05  0.39098042D-06 -0.12742141D+01 -0.23762700D+01
 -0.39989117D+01 -0.62963219D+01 -0.83517726D+01 -0.54407510D+01 -0.53840069D+01
 -0.90733075D+01 -0.19336829D+01  0.58199944D+01  0.24290648D+01  0.10322712D+00
 -0.11022014D-01  0.10734337D-02 -0.36286978D-03 -0.63445279D-04  0.70148578D-05
 -0.28897274D-06 -0.14353704D-05 -0.41177206D-01 -0.55071575D-01 -0.63611918D-01
  0.16918994D-02  0.22627948D-02  0.26137026D-02  0.84240506D-02  0.11266567D-01
  0.13013754D-01 -0.57190984D-01 -0.26975063D-01 -0.47672726D-02  0.23499161D-02
  0.11083764D-02  0.19588211D-03  0.11700168D-01  0.55185754D-02  0.97529164D-03
 -0.11065427D-03 -0.23116202D-03 -0.14730193D-03  0.45427268D-05  0.94899721D-05
  0.60472354D-05  0.22636221D-04  0.47288142D-04  0.30133126D-04 -0.43593043D-04
  0.18055874D-05  0.89248619D-05  0.81394573D-04 -0.33554349D-05 -0.16656546D-04
 -0.52903994D-04  0.21771578D-05  0.10824620D-04  0.49483107D-04 -0.20330349D-05
 -0.10123571D-04  0.47218460D-02  0.35198044D-02  0.16315916D-02  0.38150557D-03
 -0.25063394D-02 -0.18682999D-02 -0.86604311D-03 -0.20250183D-03 -0.22155067D-02
 -0.16515045D-02 -0.76554847D-03 -0.17900375D-03 -0.59427079D-03 -0.44298711D-03
 -0.20534495D-03 -0.48014614D-04 -0.29623687D-02 -0.22082377D-02 -0.10236200D-02
 -0.23934710D-03  0.12167856D-03  0.90702816D-04  0.42044936D-04  0.98311228D-05
  0.56583037D-04 -0.30032802D-04 -0.26550235D-04 -0.71401376D-05 -0.35505319D-04
  0.14591757D-05 -0.25911003D-04  0.13753100D-04  0.12157903D-04  0.32660815D-05
  0.16257683D-04 -0.66798508D-06  0.49196638D-06  0.91870106D-06  0.15638844D-05
  0.24242830D-05  0.32645473D-05  0.24743229D-05 -0.50319143D-05 -0.11721414D-04
 -0.28591288D-05  0.26645943D-04 -0.27462253D-04  0.22239971D-04 -0.28810901D-04
  0.86802998D-04  0.12867821D-04 -0.52339131D-06 -0.26309767D-05 -0.11469923D-03
 -0.14687974D-03 -0.15715975D-03 -0.12505405D-03 -0.28781860D-04  0.46739041D-05
  0.59852346D-05  0.64041368D-05  0.50958550D-05  0.11728383D-05  0.23454104D-04
  0.30034488D-04  0.32136580D-04  0.25571495D-04  0.58854165D-05  0.92292055D-04
 -0.19178312D-04 -0.37606405D-05  0.78146201D-06 -0.18872153D-04  0.39216380D-05
  0.30114803D-04 -0.12274189D-05 -0.61580564D-05 -0.17950219D-04  0.73204637D-06
  0.36706956D-05  0.12391977D-04 -0.50661106D-06 -0.25344501D-05  0.10095571D-04
 -0.53591771D-05 -0.47363938D-05 -0.12592562D-05 -0.63297099D-05  0.25768341D-06
MO    4     MO 0.0        OCC NO =    2.0000000  ORB. ENERGY =  -56.135509
 -0.10963709D-05 -0.20409961D-05 -0.33574194D-05 -0.45084508D-05 -0.42448764D-05
 -0.34882975D-06  0.44336779D-05  0.11781112D-04 -0.15881763D-07  0.16291427D-03
  0.15244762D-03  0.11807657D-03 -0.66879469D-05 -0.62582705D-05 -0.48472724D-05
 -0.33328608D-04 -0.31187365D-04 -0.24155820D-04  0.51287680D-04 -0.74502775D-04
  0.30599227D-05  0.15242161D-04 -0.65860129D-04 -0.27100554D-04  0.11114455D-05
  0.55439395D-05  0.20461692D-04  0.34518763D-04 -0.14147610D-05 -0.70610137D-05
 -0.96191059D-04  0.51058999D-04  0.45132060D-04  0.12105328D-04  0.60346879D-04
 -0.24772310D-05 -0.85369365D-05 -0.15399416D-04 -0.22702798D-04  0.31626349D-04
  0.94697282D-05  0.11558689D-04  0.62226467D-04 -0.65763657D-05 -0.61775620D-05
 -0.85367446D-05 -0.15399069D-04 -0.22702287D-04  0.31628073D-04  0.94688153D-05
  0.11558841D-04  0.59613121D-04 -0.60260965D-05 -0.19070696D-04 -0.85372011D-05
 -0.15399893D-04 -0.22703501D-04  0.31623507D-04  0.94721987D-05  0.11558355D-04
  0.61459507D-04  0.50833747D-05 -0.12248412D-04 -0.66482214D-03 -0.12398206D-02
 -0.20864351D-02 -0.32851105D-02 -0.43575434D-02 -0.28387158D-02 -0.28432194D-02
 -0.47914878D-02 -0.10211511D-02  0.31965524D-02  0.11800226D-02  0.11488770D-03
 -0.53073499D-04  0.27683770D-05  0.55800501D-05 -0.79697953D-04  0.33306553D-05
 -0.13685073D-06 -0.68139336D-06  0.85861219D+02  0.11483326D+03  0.13264127D+03
 -0.35248104D+01 -0.47141825D+01 -0.54452445D+01 -0.17565268D+02 -0.23492293D+02
 -0.27135411D+02  0.11040361D+03  0.52073668D+02  0.92029208D+01 -0.45323348D+01
 -0.21377498D+01 -0.37780213D+00 -0.22586087D+02 -0.10653097D+02 -0.18827100D+01
  0.98207568D-01  0.20516028D+00  0.13073300D+00 -0.40316577D-02 -0.84223245D-02
 -0.53669050D-02 -0.20091052D-01 -0.41971163D-01 -0.26745021D-01 -0.37077162D-01
  0.15221037D-02  0.75851478D-02  0.10529465D-01 -0.43225706D-03 -0.21540887D-02
 -0.11223554D-02  0.46074770D-04  0.22960801D-03  0.11295928D-03 -0.46378066D-05
 -0.23109038D-04 -0.36723499D-02 -0.27374788D-02 -0.12689476D-02 -0.29671064D-03
  0.19492713D-02  0.14530448D-02  0.67355323D-03  0.15749303D-03  0.17230786D-02
  0.12844340D-02  0.59539436D-03  0.13921760D-03  0.46296492D-03  0.34510782D-03
  0.15997338D-03  0.37405645D-04  0.23041443D-02  0.17175777D-02  0.79617641D-03
  0.18616530D-03 -0.94783929D-04 -0.70654758D-04 -0.32751737D-04 -0.76581483D-05
 -0.11683074D-03  0.62012983D-04  0.54817754D-04  0.14688086D-04  0.73291359D-04
 -0.30043122D-05  0.41953575D-04 -0.22268690D-04 -0.19684886D-04 -0.52772907D-05
 -0.26319559D-04  0.10795268D-05  0.14283282D-06  0.26672689D-06  0.45404327D-06
  0.70384315D-06  0.94779748D-06  0.71837128D-06 -0.15837112D-05 -0.36891198D-05
 -0.89986316D-06  0.86281556D-05 -0.90503560D-05  0.71051366D-05 -0.42517159D-05
  0.39519123D-04  0.61828277D-05 -0.25081020D-06 -0.12639499D-05 -0.28613416D-04
 -0.36641318D-04 -0.39205818D-04 -0.31196579D-04 -0.71800597D-05  0.11591915D-05
  0.14844193D-05  0.15883127D-05  0.12638411D-05  0.29087979D-06  0.58491007D-05
  0.74901494D-05  0.80143795D-05  0.63771460D-05  0.14677343D-05  0.23444514D-04
 -0.48717758D-05 -0.94989690D-06  0.19738881D-06 -0.47925109D-05  0.99588493D-06
  0.63210930D-05 -0.25580973D-06 -0.12920726D-05 -0.12552141D-05  0.50053671D-07
  0.25637006D-06 -0.17280074D-06  0.73350817D-08  0.35405672D-07 -0.65178336D-05
  0.34598399D-05  0.30579938D-05  0.82028041D-06  0.40889207D-05 -0.16786512D-06
MO    5     MO 0.0        OCC NO =    2.0000000  ORB. ENERGY =  -56.132785
 -0.12489336D-09 -0.23250059D-09 -0.38246129D-09 -0.51358132D-09 -0.48355617D-09
 -0.39737030D-10  0.43303612D-09  0.11506581D-08 -0.15511674D-11 -0.58392111D-05
 -0.54640629D-05 -0.42321279D-05 -0.33398163D-04 -0.31252452D-04 -0.24206232D-04
 -0.21876485D-04 -0.20471000D-04 -0.15855581D-04  0.23590145D-09  0.60655818D-05
  0.34676639D-04  0.22713614D-04 -0.45117160D-09  0.15689408D-05  0.89706744D-05
  0.58770352D-05  0.21182047D-07 -0.96333313D-06 -0.54488065D-05 -0.35675240D-05
  0.20927218D-05  0.24617260D-04 -0.26709982D-04  0.15436639D-04  0.64955053D-06
 -0.29982193D-04 -0.51989357D-07 -0.93781382D-07 -0.13825848D-06 -0.80866910D-06
 -0.32487340D-06  0.97606731D-06 -0.25012603D-05 -0.87634531D-05 -0.38702552D-05
  0.15463535D-05  0.27894011D-05  0.41123124D-05  0.24490402D-04  0.95425275D-05
 -0.29538186D-04  0.45843489D-04  0.96832167D-05  0.22867745D-04 -0.14953252D-05
 -0.26973533D-05 -0.39766098D-05 -0.23671970D-04 -0.92370629D-05  0.28543598D-04
 -0.37252922D-04  0.33836246D-04  0.37685440D-05  0.20523246D-07  0.38273609D-07
  0.64408836D-07  0.10141228D-06  0.13451859D-06  0.87631952D-07  0.88775080D-07
  0.14960672D-06  0.31883847D-07 -0.10690787D-06 -0.23748205D-07 -0.16473683D-07
  0.11736109D-07 -0.88122138D-08  0.88109683D-08  0.16091657D-07 -0.11829356D-05
 -0.67462150D-05 -0.44187724D-05  0.12709047D+02  0.16997444D+02  0.19633359D+02
  0.72600831D+02  0.97098433D+02  0.11215618D+03  0.47554646D+02  0.63600946D+02
  0.73464000D+02  0.16341410D+02  0.77076935D+01  0.13621720D+01  0.93350820D+02
  0.44030441D+02  0.77814505D+01  0.61146204D+02  0.28840607D+02  0.50969681D+01
  0.14494380D-01  0.30279448D-01  0.19294783D-01  0.82799597D-01  0.17297229D+00
  0.11022205D+00  0.54234992D-01  0.11329948D+00  0.72197115D-01 -0.53955310D-02
 -0.30822120D-01 -0.20188955D-01  0.14950817D-02  0.85406847D-02  0.55942780D-02
 -0.14808552D-03 -0.84594440D-03 -0.55410699D-03  0.14949931D-04  0.85416346D-04
  0.55949721D-04 -0.14269776D-02 -0.10637115D-02 -0.49307933D-03 -0.11529387D-03
  0.32614295D-03  0.24311665D-03  0.11269577D-03  0.26350997D-04  0.11008347D-02
  0.82059489D-03  0.38038356D-03  0.88942875D-04 -0.80942574D-02 -0.60337001D-02
 -0.27968981D-02 -0.65398242D-03 -0.50452870D-02 -0.37609069D-02 -0.17433537D-02
 -0.40763826D-03  0.18964222D-02  0.14136495D-02  0.65529169D-03  0.15322305D-03
  0.99424870D-05 -0.98821930D-06 -0.89542677D-05  0.56610917D-04  0.34829621D-04
 -0.14612294D-04  0.10849371D-06 -0.38540634D-06  0.27691264D-06  0.55421501D-06
  0.47354864D-06  0.24868296D-06 -0.93623838D-11 -0.17483373D-10 -0.29761559D-10
 -0.46135403D-10 -0.62126084D-10 -0.47087691D-10  0.10289107D-09  0.23967594D-09
  0.58462603D-10 -0.57707289D-09  0.65084802D-09 -0.93511903D-09  0.25905458D-08
 -0.17893107D-07 -0.14678170D-06 -0.81985673D-06 -0.53721188D-06 -0.62180076D-05
 -0.79625584D-05 -0.85198521D-05 -0.67793571D-05 -0.15603053D-05 -0.35698772D-04
 -0.45714572D-04 -0.48914102D-04 -0.38921587D-04 -0.89580117D-05 -0.23400033D-04
 -0.29965246D-04 -0.32062492D-04 -0.25512542D-04 -0.58718482D-05  0.49743575D-05
 -0.10336727D-05  0.28557561D-04 -0.59342683D-05  0.18719021D-04 -0.38898171D-05
  0.15953488D-05  0.91611450D-05  0.60051179D-05 -0.84639286D-06 -0.48634774D-05
 -0.31882728D-05  0.37000822D-06  0.21324181D-05  0.13984577D-05  0.52421872D-06
 -0.48643450D-06 -0.37784222D-07  0.29372588D-05  0.19642648D-05 -0.30145902D-06
MO    6     MO 0.0        OCC NO =    2.0000000  ORB. ENERGY =  -56.132785
  0.52531291D-10  0.97791874D-10  0.16086671D-09  0.21601700D-09  0.20338815D-09
  0.16713758D-10 -0.17931249D-09 -0.47646687D-09  0.64231063D-12 -0.58107358D-05
 -0.54374170D-05 -0.42114897D-05  0.22586064D-04  0.21134991D-04  0.16369867D-04
 -0.32927178D-04 -0.30811726D-04 -0.23864873D-04  0.25689656D-09  0.60325855D-05
 -0.23450698D-04  0.34188155D-04 -0.55684936D-09  0.15608757D-05 -0.60663384D-05
  0.88455125D-05 -0.71861941D-08 -0.94483256D-06  0.36849513D-05 -0.53734714D-05
  0.33561351D-05 -0.12348920D-04  0.89927850D-05 -0.23999934D-04  0.20997219D-04
 -0.47740628D-04 -0.17561034D-05 -0.31677599D-05 -0.46701131D-05 -0.27807330D-04
 -0.10840759D-04  0.33536875D-04 -0.38731385D-04 -0.18139041D-04  0.40599891D-04
  0.83409183D-06  0.15045827D-05  0.22181514D-05  0.13198380D-04  0.51508970D-05
 -0.15919100D-04  0.24067026D-04  0.15032622D-04  0.72171873D-05  0.92233727D-06
  0.16637648D-05  0.24528279D-05  0.14606307D-04  0.56967995D-05 -0.17611725D-04
  0.20708956D-04 -0.20397598D-04 -0.13547472D-04 -0.11420581D-07 -0.21298135D-07
 -0.35841618D-07 -0.56432946D-07 -0.74855628D-07 -0.48764598D-07 -0.48633525D-07
 -0.81958833D-07 -0.17466882D-07  0.54452093D-07  0.19685304D-07  0.35111686D-08
 -0.23585605D-08  0.22058403D-08 -0.24145497D-08 -0.50964404D-08 -0.11729121D-05
  0.45622013D-05 -0.66519442D-05  0.12628287D+02  0.16889433D+02  0.19508599D+02
 -0.49097237D+02 -0.65664053D+02 -0.75847047D+02  0.71580950D+02  0.95734415D+02
  0.11058064D+03  0.16237569D+02  0.76587149D+01  0.13535161D+01 -0.63129682D+02
 -0.29776147D+02 -0.52623051D+01  0.92039449D+02  0.43411912D+02  0.76721384D+01
  0.14402275D-01  0.30087037D-01  0.19172174D-01 -0.55994284D-01 -0.11697472D+00
 -0.74539067D-01  0.81636447D-01  0.17054242D+00  0.10867368D+00 -0.53612433D-02
  0.20843855D-01 -0.30389143D-01  0.14855797D-02 -0.57757494D-02  0.84207112D-02
 -0.14714550D-03  0.57208109D-03 -0.83406198D-03  0.14858263D-04 -0.57763862D-04
  0.84216581D-04 -0.14182975D-02 -0.10572411D-02 -0.49008000D-03 -0.11459256D-03
 -0.22207358D-03 -0.16554025D-03 -0.76735536D-04 -0.17942624D-04  0.16403711D-02
  0.12227814D-02  0.56681553D-03  0.13253518D-03  0.55762898D-02  0.41567322D-02
  0.19268370D-02  0.45054108D-03 -0.77502884D-02 -0.57772954D-02 -0.26780427D-02
 -0.62619115D-03 -0.78071349D-03 -0.58196705D-03 -0.26976855D-03 -0.63078411D-04
  0.99526158D-05  0.90034167D-06 -0.10852957D-04 -0.39684577D-04  0.54520975D-04
  0.29398377D-05  0.87701175D-07  0.19855430D-06 -0.28625548D-06 -0.18991408D-06
  0.44214219D-06  0.76070867D-06  0.24449040D-11  0.45656289D-11  0.77719688D-11
  0.12047854D-10  0.16223680D-10  0.12296536D-10 -0.26837088D-10 -0.62514703D-10
 -0.15248807D-10  0.15103353D-09 -0.17198477D-09  0.26490088D-09 -0.77140461D-09
  0.57110746D-08 -0.14182817D-06  0.55436373D-06 -0.80959083D-06 -0.62222269D-05
 -0.79679614D-05 -0.85256333D-05 -0.67839573D-05 -0.15613641D-05  0.24139492D-04
  0.30912171D-04  0.33075691D-04  0.26318758D-04  0.60574030D-05 -0.35207433D-04
 -0.45085381D-04 -0.48240874D-04 -0.38385891D-04 -0.88347184D-05  0.49774613D-05
 -0.10343177D-05 -0.19310616D-04  0.40127508D-05  0.28164517D-04 -0.58525935D-05
  0.15968917D-05 -0.61947460D-05  0.90350881D-05 -0.84798145D-06  0.32886373D-05
 -0.47967036D-05  0.37225112D-06 -0.14418501D-05  0.21034373D-05  0.50609155D-06
  0.26703539D-06 -0.77312695D-06 -0.18273975D-05  0.27211502D-05  0.10049209D-05
MO    7     MO 0.0        OCC NO =    2.0000000  ORB. ENERGY =  -10.082834
  0.43813260D+00  0.81562451D+00  0.13416946D+01  0.18016707D+01  0.16963409D+01
  0.13939963D+00  0.37092785D+00  0.98562474D+00 -0.13286910D-02  0.20168038D-02
  0.18872314D-02  0.14617337D-02 -0.82335201D-04 -0.77045463D-04 -0.59674689D-04
 -0.41244911D-03 -0.38595075D-03 -0.29893377D-03  0.78812713D-02 -0.10789341D-02
  0.44112278D-04  0.22066032D-03 -0.14310089D-02 -0.47187865D-04  0.19407061D-05
  0.96551766D-05 -0.71858429D-03  0.88169272D-04 -0.36098523D-05 -0.18034207D-04
 -0.14162070D-02  0.75164982D-03  0.66455720D-03  0.17814525D-03  0.88847171D-03
 -0.36414387D-04  0.46397160D-04  0.83693857D-04  0.12338681D-03 -0.12396100D-02
  0.70467884D-03  0.67130789D-04 -0.45078917D-04 -0.12187727D-02  0.19969459D-02
  0.46392465D-04  0.83685387D-04  0.12337432D-03 -0.12396381D-02  0.70468681D-03
  0.67125825D-04 -0.83839829D-03 -0.10519657D-02 -0.19146593D-02  0.46407561D-04
  0.83712618D-04  0.12341446D-03 -0.12395406D-02  0.70466144D-03  0.67145465D-04
 -0.27680573D-03  0.23181966D-02  0.15501425D-03  0.60706537D-06  0.11321105D-05
  0.19051749D-05  0.29997148D-05  0.39789795D-05  0.25921008D-05  0.22302227D-05
  0.37584455D-05  0.80099145D-06 -0.50105784D-06 -0.59545335D-05 -0.12302842D-05
  0.15663320D-04 -0.12309875D-03  0.20121055D-03 -0.47093996D-04  0.85462430D-05
 -0.35307889D-06 -0.17490250D-05 -0.29013168D-03 -0.38803042D-03 -0.44820508D-03
  0.11921737D-04  0.15944472D-04  0.18417096D-04  0.59355195D-04  0.79383339D-04
  0.91693882D-04 -0.39181769D-03 -0.18480722D-03 -0.32660773D-04  0.16130335D-04
  0.76081362D-05  0.13445774D-05  0.80162545D-04  0.37809976D-04  0.66821146D-05
  0.27072598D-04  0.56555944D-04  0.36038789D-04 -0.11179170D-05 -0.23353818D-05
 -0.14881607D-05 -0.55393340D-05 -0.11571932D-04 -0.73739096D-05 -0.92991281D-04
  0.38441930D-05  0.19027996D-04  0.20366194D-03 -0.83803726D-05 -0.41667610D-04
 -0.14647092D-03  0.60192446D-05  0.29965638D-04 -0.55465822D-04  0.22735029D-05
  0.11346242D-04  0.33817538D-02  0.25208599D-02  0.11685347D-02  0.27323168D-03
 -0.17950183D-02 -0.13380600D-02 -0.62025249D-03 -0.14503003D-03 -0.15867355D-02
 -0.11827999D-02 -0.54828225D-03 -0.12820165D-03 -0.42543386D-03 -0.31713105D-03
 -0.14700486D-03 -0.34373291D-04 -0.21215792D-02 -0.15814882D-02 -0.73309268D-03
 -0.17141480D-03  0.87026964D-04  0.64872487D-04  0.30071388D-04  0.70314177D-05
 -0.37081034D-03  0.19682411D-03  0.17398623D-03  0.46651182D-04  0.23263236D-03
 -0.95429824D-05  0.14998262D-03 -0.79609716D-04 -0.70372902D-04 -0.18870753D-04
 -0.94093883D-04  0.38601658D-05 -0.10370366D-06 -0.19365686D-06 -0.32965778D-06
 -0.51102481D-06 -0.68814767D-06 -0.52157294D-06  0.63401022D-05  0.14768726D-04
  0.36024399D-05 -0.45152925D-04  0.51989851D-04 -0.22518504D-04 -0.71438450D-05
  0.19232212D-03  0.23615312D-04 -0.95987755D-06 -0.48283436D-05 -0.21767300D-03
 -0.27874426D-03 -0.29825337D-03 -0.23732409D-03 -0.54621410D-04  0.87358052D-05
  0.11186760D-04  0.11969713D-04  0.95244565D-05  0.21921047D-05  0.44473377D-04
  0.56951018D-04  0.60936979D-04  0.48488346D-04  0.11159853D-04  0.78678220D-04
 -0.16349353D-04 -0.31225999D-05  0.64887702D-06 -0.16065171D-04  0.33383464D-05
  0.94795914D-04 -0.38292313D-05 -0.19374984D-04 -0.83551841D-04  0.33972606D-05
  0.17083109D-04  0.30201005D-04 -0.12254036D-05 -0.61741763D-05  0.53471578D-05