 Single Point Energy
GAUSSIAN             31 MOL ORBITALS    210 PRIMITIVES        6 NUCLEI   B3LYP
  C    1    (CENTRE  1)   2.39355900  0.07331633  0.42195097  CHARGE =  6.0
  H    2    (CENTRE  2)   2.10582553 -0.96702385 -1.31396140  CHARGE =  1.0
  H    3    (CENTRE  3)   1.51703683 -0.87086327  2.00900063  CHARGE =  1.0
  H    4    (CENTRE  4)   1.73942914  2.00233813  0.25022301  CHARGE =  1.0
  Br   5    (CENTRE  5)  -3.40546347 -0.10415459 -0.60037461  CHARGE = 35.0
  Cl   6    (CENTRE  6)   5.85103388  0.17888598  1.03153784  CHARGE = 17.0
CENTRE ASSIGNMENTS    1  1  1  1  1  1  1  1  1  1  1  1  1  1  1  1  1  1  1  1
CENTRE ASSIGNMENTS    1  1  1  1  1  1  1  1  1  1  1  1  1  1  1  1  2  2  2  2
CENTRE ASSIGNMENTS    2  2  2  2  2  3  3  3  3  3  3  3  3  3  4  4  4  4  4  4
CENTRE ASSIGNMENTS    4  4  4  5  5  5  5  5  5  5  5  5  5  5  5  5  5  5  5  5
CENTRE ASSIGNMENTS    5  5  5  5  5  5  5  5  5  5  5  5  5  5  5  5  5  5  5  5
CENTRE ASSIGNMENTS    5  5  5  5  5  5  5  5  5  5  5  5  5  5  5  5  5  5  5  5
CENTRE ASSIGNMENTS    5  5  5  5  5  5  5  5  5  5  5  5  5  5  5  5  5  5  5  5
CENTRE ASSIGNMENTS    5  5  5  5  5  5  5  5  5  5  5  5  5  5  5  5  5  6  6  6
CENTRE ASSIGNMENTS    6  6  6  6  6  6  6  6  6  6  6  6  6  6  6  6  6  6  6  6
CENTRE ASSIGNMENTS    6  6  6  6  6  6  6  6  6  6  6  6  6  6  6  6  6  6  6  6
CENTRE ASSIGNMENTS    6  6  6  6  6  6  6  6  6  6
TYPE ASSIGNMENTS      1  1  1  1  1  1  1  1  1  2  2  2  3  3  3  4  4  4  1  2
TYPE ASSIGNMENTS      3  4  1  2  3  4  1  2  3  4  5  6  7  8  9 10  1  1  1  1
TYPE ASSIGNMENTS      1  1  2  3  4  1  1  1  1  1  1  2  3  4  1  1  1  1  1  1
TYPE ASSIGNMENTS      2  3  4  1  1  1  1  1  1  1  1  1  1  1  1  1  1  1  1  2
TYPE ASSIGNMENTS      3  4  2  2  2  3  3  3  4  4  4  2  2  2  3  3  3  4  4  4
TYPE ASSIGNMENTS      2  2  2  3  3  3  4  4  4  2  3  4  2  3  4  2  3  4  2  3
TYPE ASSIGNMENTS      4  5  5  5  5  6  6  6  6  7  7  7  7  8  8  8  8  9  9  9
TYPE ASSIGNMENTS      9 10 10 10 10  5  6  7  8  9 10  5  6  7  8  9 10  1  1  1
TYPE ASSIGNMENTS      1  1  1  1  1  1  1  1  1  1  1  2  3  4  2  2  2  2  2  3
TYPE ASSIGNMENTS      3  3  3  3  4  4  4  4  4  2  2  3  3  4  4  2  3  4  2  3
TYPE ASSIGNMENTS      4  2  3  4  5  6  7  8  9 10
EXPONENTS  0.4563240D+04 0.6820240D+03 0.1549730D+03 0.4445530D+02 0.1302900D+02
EXPONENTS  0.1827730D+01 0.2096420D+02 0.4803310D+01 0.1459330D+01 0.2096420D+02
EXPONENTS  0.4803310D+01 0.1459330D+01 0.2096420D+02 0.4803310D+01 0.1459330D+01
EXPONENTS  0.2096420D+02 0.4803310D+01 0.1459330D+01 0.4834560D+00 0.4834560D+00
EXPONENTS  0.4834560D+00 0.4834560D+00 0.1455850D+00 0.1455850D+00 0.1455850D+00
EXPONENTS  0.1455850D+00 0.4380000D-01 0.4380000D-01 0.4380000D-01 0.4380000D-01
EXPONENTS  0.6260000D+00 0.6260000D+00 0.6260000D+00 0.6260000D+00 0.6260000D+00
EXPONENTS  0.6260000D+00 0.3386500D+02 0.5094790D+01 0.1158790D+01 0.3258400D+00
EXPONENTS  0.1027410D+00 0.3600000D-01 0.7500000D+00 0.7500000D+00 0.7500000D+00
EXPONENTS  0.3386500D+02 0.5094790D+01 0.1158790D+01 0.3258400D+00 0.1027410D+00
EXPONENTS  0.3600000D-01 0.7500000D+00 0.7500000D+00 0.7500000D+00 0.3386500D+02
EXPONENTS  0.5094790D+01 0.1158790D+01 0.3258400D+00 0.1027410D+00 0.3600000D-01
EXPONENTS  0.7500000D+00 0.7500000D+00 0.7500000D+00 0.4397000D+06 0.6603000D+05
EXPONENTS  0.1514000D+05 0.4317000D+04 0.1414000D+04 0.5239000D+03 0.5239000D+03
EXPONENTS  0.2077000D+03 0.8654000D+02 0.3052000D+02 0.1298000D+02 0.4412000D+01
EXPONENTS  0.1862000D+01 0.3932000D+00 0.1400000D+00 0.3500000D-01 0.3500000D-01
EXPONENTS  0.3500000D-01 0.3500000D-01 0.2957000D+04 0.7003000D+03 0.2246000D+03
EXPONENTS  0.2957000D+04 0.7003000D+03 0.2246000D+03 0.2957000D+04 0.7003000D+03
EXPONENTS  0.2246000D+03 0.8259000D+02 0.3319000D+02 0.1420000D+02 0.8259000D+02
EXPONENTS  0.3319000D+02 0.1420000D+02 0.8259000D+02 0.3319000D+02 0.1420000D+02
EXPONENTS  0.1420000D+02 0.7438000D+01 0.3526000D+01 0.1420000D+02 0.7438000D+01
EXPONENTS  0.3526000D+01 0.1420000D+02 0.7438000D+01 0.3526000D+01 0.1595000D+01
EXPONENTS  0.1595000D+01 0.1595000D+01 0.8462000D+00 0.8462000D+00 0.8462000D+00
EXPONENTS  0.3186000D+00 0.3186000D+00 0.3186000D+00 0.1096000D+00 0.1096000D+00
EXPONENTS  0.1096000D+00 0.1348000D+03 0.3639000D+02 0.1216000D+02 0.4341000D+01
EXPONENTS  0.1348000D+03 0.3639000D+02 0.1216000D+02 0.4341000D+01 0.1348000D+03
EXPONENTS  0.3639000D+02 0.1216000D+02 0.4341000D+01 0.1348000D+03 0.3639000D+02
EXPONENTS  0.1216000D+02 0.4341000D+01 0.1348000D+03 0.3639000D+02 0.1216000D+02
EXPONENTS  0.4341000D+01 0.1348000D+03 0.3639000D+02 0.1216000D+02 0.4341000D+01
EXPONENTS  0.1535000D+01 0.1535000D+01 0.1535000D+01 0.1535000D+01 0.1535000D+01
EXPONENTS  0.1535000D+01 0.4510000D+00 0.4510000D+00 0.4510000D+00 0.4510000D+00
EXPONENTS  0.4510000D+00 0.4510000D+00 0.1058190D+06 0.1587200D+05 0.3619650D+04
EXPONENTS  0.1030800D+04 0.3399080D+03 0.1245380D+03 0.1245380D+03 0.4951350D+02
EXPONENTS  0.2080560D+02 0.6583460D+01 0.2564680D+01 0.5597630D+00 0.1832730D+00
EXPONENTS  0.4830000D-01 0.4830000D-01 0.4830000D-01 0.4830000D-01 0.5897760D+03
EXPONENTS  0.1398490D+03 0.4514130D+02 0.1687330D+02 0.2771520D+01 0.5897760D+03
EXPONENTS  0.1398490D+03 0.4514130D+02 0.1687330D+02 0.2771520D+01 0.5897760D+03
EXPONENTS  0.1398490D+03 0.4514130D+02 0.1687330D+02 0.2771520D+01 0.6741100D+01
EXPONENTS  0.2771520D+01 0.6741100D+01 0.2771520D+01 0.6741100D+01 0.2771520D+01
EXPONENTS  0.1023870D+01 0.1023870D+01 0.1023870D+01 0.3813680D+00 0.3813680D+00
EXPONENTS  0.3813680D+00 0.1094370D+00 0.1094370D+00 0.1094370D+00 0.7500000D+00
EXPONENTS  0.7500000D+00 0.7500000D+00 0.7500000D+00 0.7500000D+00 0.7500000D+00
MO    1     MO 0.0        OCC NO =    2.0000000  ORB. ENERGY = -482.555164
 -0.43936264D-07 -0.81791434D-07 -0.13454614D-06 -0.18067288D-06 -0.17011033D-06
 -0.13979098D-07  0.12276535D-06  0.32621051D-06 -0.43975456D-09 -0.30820635D-05
 -0.28840521D-05 -0.22338098D-05 -0.94201087D-07 -0.88149008D-07 -0.68274814D-07
 -0.54336287D-06 -0.50845377D-06 -0.39381710D-06 -0.64972196D-06  0.28725183D-05
  0.88035256D-07  0.50638497D-06  0.19163109D-05 -0.31511604D-05 -0.96080193D-07
 -0.55559425D-06  0.33690347D-05 -0.10925895D-05 -0.33386075D-07 -0.19263039D-06
 -0.36346139D-07  0.19101737D-07  0.17244402D-07 -0.36716625D-08 -0.19460345D-07
 -0.62944159D-09  0.13882022D-06  0.25041187D-06  0.36917309D-06 -0.16834419D-05
 -0.19692947D-05 -0.16580821D-05  0.14434975D-05 -0.46206501D-06 -0.57196587D-06
  0.13881014D-06  0.25039368D-06  0.36914629D-06 -0.16833770D-05 -0.19692190D-05
 -0.16581166D-05  0.11546697D-05 -0.41481417D-06  0.10576072D-05  0.13888788D-06
  0.25053393D-06  0.36935304D-06 -0.16837665D-05 -0.19696864D-05 -0.16577913D-05
  0.12643260D-05  0.99538918D-06  0.19525301D-06  0.38584359D+01  0.71955609D+01
  0.12109067D+02  0.19065834D+02  0.25289925D+02  0.16475087D+02  0.96359568D+01
  0.16238835D+02  0.34607840D+01  0.81718382D-01 -0.11302670D-01  0.24789001D-02
 -0.63831689D-03  0.68505693D-04 -0.19535740D-04  0.19950459D-05  0.30963651D-06
  0.94561126D-08  0.54590263D-07  0.11136826D-03  0.14894710D-03  0.17204540D-03
  0.34350794D-05  0.45941737D-05  0.53066250D-05  0.19608164D-04  0.26224521D-04
  0.30291344D-04  0.31527480D-04  0.14870451D-04  0.26280382D-05  0.97359736D-06
  0.45921312D-06  0.81156219D-07  0.55494574D-05  0.26174924D-05  0.46258649D-06
 -0.24746274D-05 -0.51696142D-05 -0.32942009D-05 -0.75906414D-07 -0.15857211D-06
 -0.10104591D-06 -0.43613951D-06 -0.91111617D-06 -0.58058484D-06  0.87781717D-05
  0.26903363D-06  0.15473542D-05 -0.70463288D-05 -0.21590998D-06 -0.12421257D-05
  0.32660860D-05  0.10005259D-06  0.57576390D-06 -0.18420744D-05 -0.56411783D-07
 -0.32473719D-06 -0.51436424D-04 -0.38342240D-04 -0.17773395D-04 -0.41558497D-05
  0.26899067D-04  0.20051364D-04  0.92947316D-05  0.21733330D-05  0.24537357D-04
  0.18290875D-04  0.84786637D-05  0.19825166D-05 -0.48060915D-05 -0.35826035D-05
 -0.16607019D-05 -0.38831226D-06 -0.27645781D-04 -0.20607987D-04 -0.95527520D-05
 -0.22336644D-05 -0.84781150D-06 -0.63198390D-06 -0.29295367D-06 -0.68499653D-07
  0.39952001D-05 -0.20893227D-05 -0.19058774D-05  0.37335310D-06  0.21472699D-05
  0.65829606D-07 -0.95768193D-06  0.50082804D-06  0.45685390D-06 -0.89494285D-07
 -0.51471614D-06 -0.15777810D-07  0.57527901D-07  0.10742796D-06  0.18287223D-06
  0.28348260D-06  0.38173860D-06  0.28933401D-06 -0.20920500D-06 -0.48732515D-06
 -0.11887008D-06  0.77734205D-06 -0.73864242D-06  0.42475423D-06  0.14122185D-06
  0.43447713D-05 -0.36983377D-06 -0.11279103D-07 -0.65207495D-07  0.11386186D-05
  0.14580743D-05  0.15601238D-05  0.12414108D-05  0.28571735D-06  0.34023367D-07
  0.43569108D-07  0.46618478D-07  0.37094930D-07  0.85375967D-08  0.20086815D-06
  0.25722457D-06  0.27522754D-06  0.21900213D-06  0.50404513D-07 -0.91585879D-06
  0.19031568D-06 -0.27302849D-07  0.56735387D-08 -0.16158060D-06  0.33576488D-07
 -0.28547361D-06 -0.85522515D-08 -0.50357596D-07 -0.10700116D-06 -0.33432001D-08
 -0.18854498D-07 -0.99730368D-06 -0.30440402D-07 -0.17583477D-06  0.64889061D-06
 -0.33934263D-06 -0.30954798D-06  0.60368760D-07  0.34881328D-06  0.10643358D-07
MO    2     MO 0.0        OCC NO =    2.0000000  ORB. ENERGY = -101.409794
  0.18207728D-05  0.33895376D-05  0.55757575D-05  0.74873066D-05  0.70495814D-05
  0.57931103D-06 -0.42850046D-05 -0.11386060D-04  0.15349204D-07  0.51353576D-04
  0.48054295D-04  0.37219909D-04  0.15686037D-05  0.14678266D-05  0.11368884D-05
  0.90541425D-05  0.84724466D-05  0.65622374D-05 -0.52503675D-05 -0.26900961D-04
 -0.82217542D-06 -0.47430784D-05  0.58936614D-04  0.25152356D-04  0.76835535D-06
  0.44345402D-05 -0.12277314D-03 -0.26842614D-04 -0.81988303D-06 -0.47325486D-05
 -0.13666765D-04  0.71471322D-05  0.65196328D-05 -0.12717318D-05 -0.73461716D-05
 -0.22382083D-06  0.70334462D-06  0.12687333D-05  0.18704474D-05 -0.23634620D-04
  0.28777579D-05  0.38054628D-05 -0.10008719D-04 -0.92481469D-05 -0.16372892D-04
  0.70333493D-06  0.12687159D-05  0.18704216D-05 -0.23634381D-04  0.28777923D-05
  0.38055415D-05 -0.15112083D-04 -0.84142811D-05  0.12432367D-04  0.70338906D-06
  0.12688135D-05  0.18705656D-05 -0.23634587D-04  0.28778354D-05  0.38048656D-05
 -0.13182668D-04  0.16492007D-04 -0.28131024D-05  0.29466038D-07  0.54950937D-07
  0.92474318D-07  0.14560163D-06  0.19313367D-06  0.12581667D-06 -0.10100167D-05
 -0.17021137D-05 -0.36275065D-06  0.61515073D-05 -0.86929406D-05  0.82971680D-05
 -0.58166500D-05  0.41423662D-05 -0.61088184D-05 -0.13311027D-04 -0.20399300D-05
 -0.62552686D-07 -0.35959088D-06 -0.99078373D-05 -0.13251026D-04 -0.15305957D-04
 -0.30455324D-06 -0.40731823D-06 -0.47048398D-06 -0.17463479D-05 -0.23356158D-05
 -0.26978164D-05  0.31176639D-04  0.14704972D-04  0.25987931D-05  0.95839567D-06
  0.45204299D-06  0.79889051D-07  0.54951524D-05  0.25918785D-05  0.45805978D-06
 -0.37759546D-05 -0.78881485D-05 -0.50265154D-05 -0.11608589D-06 -0.24250894D-06
 -0.15453245D-06 -0.66554310D-06 -0.13903512D-05 -0.88596475D-06  0.12936076D-04
  0.39788313D-06  0.22800583D-05 -0.88725074D-05 -0.27311765D-06 -0.15637903D-05
  0.21452970D-05  0.66310404D-07  0.37805834D-06 -0.17892182D-05 -0.55045702D-07
 -0.31536382D-06  0.12971290D-03  0.96691852D-04  0.44821130D-04  0.10480264D-04
 -0.67838061D-04 -0.50568508D-04 -0.23440834D-04 -0.54810339D-05 -0.61874839D-04
 -0.46123345D-04 -0.21380296D-04 -0.49992303D-05  0.12058094D-04  0.89884619D-05
  0.41665664D-05  0.97424399D-06  0.69728059D-04  0.51977368D-04  0.24093906D-04
  0.56337379D-05  0.21261872D-05  0.15849232D-05  0.73468495D-06  0.17178711D-06
 -0.10047198D-04  0.52545424D-05  0.47926561D-05 -0.93399700D-06 -0.54009436D-05
 -0.16469087D-06  0.23814781D-05 -0.12454755D-05 -0.11360026D-05  0.22138196D-06
  0.12801872D-05  0.39036662D-07  0.12702088D+01  0.23719957D+01  0.40377957D+01
  0.62592600D+01  0.84287399D+01  0.63884582D+01  0.23318112D+01  0.54317549D+01
  0.13249329D+01  0.43928554D-01 -0.57170383D-02  0.69101666D-03 -0.22958834D-03
  0.15424438D-03 -0.23287005D-04 -0.71084626D-06 -0.41057780D-05 -0.89436596D-03
 -0.11452931D-02 -0.12254513D-02 -0.97510757D-03 -0.22442623D-03 -0.27306794D-04
 -0.34968105D-04 -0.37415497D-04 -0.29771998D-04 -0.68521847D-05 -0.15768880D-03
 -0.20193064D-03 -0.21606362D-03 -0.17192463D-03 -0.39569375D-04  0.18291231D-03
 -0.38009222D-04  0.55842615D-05 -0.11604109D-05  0.32250173D-04 -0.67015938D-05
  0.65685491D-04  0.20054558D-05  0.11581282D-04 -0.49957248D-05 -0.15249844D-06
 -0.88085167D-06  0.19598906D-04  0.59833051D-06  0.34555097D-05 -0.15241434D-04
  0.79710325D-05  0.72704017D-05 -0.14188934D-05 -0.81927780D-05 -0.25017556D-06
MO    3     MO 0.0        OCC NO =    2.0000000  ORB. ENERGY =  -62.208203
 -0.41399127D-06 -0.77068317D-06 -0.12677666D-05 -0.17023977D-05 -0.16028716D-05
 -0.13171863D-06  0.14911890D-05  0.39623683D-05 -0.53415492D-08 -0.42469261D-04
 -0.39740764D-04 -0.30780758D-04 -0.12980558D-05 -0.12146604D-05 -0.94080143D-06
 -0.74872610D-05 -0.70062315D-05 -0.54265971D-05 -0.92491541D-05  0.40434451D-04
  0.12391398D-05  0.71280433D-05  0.27077026D-04 -0.44605369D-04 -0.13600351D-05
 -0.78645578D-05  0.48639160D-04 -0.15514497D-04 -0.47407218D-06 -0.27353034D-05
 -0.55456826D-06  0.29135138D-06  0.26321688D-06 -0.55594078D-07 -0.29702858D-06
 -0.95509484D-08  0.19055996D-05  0.34374298D-05  0.50676776D-05 -0.23608720D-04
 -0.28149686D-04 -0.23733220D-04  0.20217202D-04 -0.64349320D-05 -0.79510328D-05
  0.19054599D-05  0.34371779D-05  0.50673062D-05 -0.23607818D-04 -0.28148611D-04
 -0.23733710D-04  0.16192841D-04 -0.57765720D-05  0.14754470D-04  0.19065377D-05
  0.34391220D-05  0.50701723D-05 -0.23613223D-04 -0.28155280D-04 -0.23729070D-04
  0.17720783D-04  0.13872347D-04  0.27389450D-05 -0.12742141D+01 -0.23762700D+01
 -0.39989117D+01 -0.62963219D+01 -0.83517726D+01 -0.54407510D+01 -0.53839913D+01
 -0.90732811D+01 -0.19336773D+01  0.58198810D+01  0.24292286D+01  0.10306817D+00
 -0.10908188D-01  0.99430629D-03 -0.28075924D-03  0.28594826D-04  0.44215522D-05
  0.13503185D-06  0.77953815D-06  0.23670609D-02  0.31657751D-02  0.36567145D-02
  0.74936460D-04  0.10022217D-03  0.11576434D-03  0.41461727D-03  0.55452102D-03
  0.64051456D-03  0.35212160D-02  0.16608391D-02  0.29351823D-03  0.11122762D-03
  0.52462325D-04  0.92716078D-05  0.61705609D-03  0.29104460D-03  0.51435985D-04
 -0.20974592D-04 -0.43816920D-04 -0.27921181D-04 -0.63379293D-06 -0.13240236D-05
 -0.84369923D-06 -0.37073309D-05 -0.77447905D-05 -0.49351643D-05  0.11181388D-03
  0.34205771D-05  0.19716252D-04 -0.95104783D-04 -0.29126785D-05 -0.16766426D-04
  0.45748442D-04  0.14013914D-05  0.80648216D-05 -0.26104179D-04 -0.79941582D-06
 -0.46018717D-05 -0.52123268D-03 -0.38854234D-03 -0.18010728D-03 -0.42113438D-04
  0.27258231D-03  0.20319096D-03  0.94188375D-04  0.22023520D-04  0.24865037D-03
  0.18535138D-03  0.85918906D-04  0.20089918D-04 -0.48550612D-04 -0.36191070D-04
 -0.16776229D-04 -0.39226881D-05 -0.28030112D-03 -0.20894479D-03 -0.96855541D-04
 -0.22647168D-04 -0.86423157D-05 -0.64422391D-05 -0.29862748D-05 -0.69826326D-06
  0.52742687D-04 -0.27582398D-04 -0.25160289D-04  0.49265694D-05  0.28349528D-04
  0.86977623D-06 -0.13220611D-04  0.69138201D-05  0.63067910D-05 -0.12353915D-05
 -0.71056003D-05 -0.21788509D-06  0.17273103D-06  0.32255899D-06  0.54908502D-06
  0.85117379D-06  0.11461934D-05  0.86874299D-06 -0.17883165D-05 -0.41657304D-05
 -0.10161197D-05  0.94546666D-05 -0.97050294D-05  0.59165225D-05  0.19299643D-05
  0.61567176D-04 -0.52301421D-05 -0.15950659D-06 -0.92215625D-06  0.13392154D-04
  0.17149514D-04  0.18349796D-04  0.14601172D-04  0.33605379D-05  0.40035525D-06
  0.51268062D-06  0.54856277D-06  0.43649853D-06  0.10046247D-06  0.23625258D-05
  0.30253661D-05  0.32371093D-05  0.25758100D-05  0.59283647D-06 -0.10022849D-04
  0.20827505D-05 -0.29905576D-06  0.62143860D-07 -0.17682361D-05  0.36743990D-06
 -0.36580136D-05 -0.10958970D-06 -0.64527145D-06 -0.15962753D-05 -0.49780532D-07
 -0.28129192D-06 -0.14139720D-04 -0.43158482D-06 -0.24929758D-05  0.91935336D-05
 -0.48078367D-05 -0.43856969D-05  0.85531737D-06  0.49420125D-05  0.15079741D-06
MO    4     MO 0.0        OCC NO =    2.0000000  ORB. ENERGY =  -56.026005
  0.34918991D-05  0.65004944D-05  0.10693252D-04  0.14359243D-04  0.13519768D-04
  0.11110094D-05 -0.10034895D-04 -0.26664596D-04  0.35945738D-07 -0.23346742D-04
 -0.21846798D-04 -0.16921189D-04 -0.71641726D-06 -0.67039004D-06 -0.51924300D-06
 -0.41186685D-05 -0.38540589D-05 -0.29851176D-05  0.25343864D-04 -0.70385347D-05
 -0.20750941D-06 -0.12405636D-05  0.38012331D-04 -0.51842081D-05 -0.15707958D-06
 -0.91680042D-06  0.10214891D-03  0.44726469D-04  0.13663339D-05  0.78861682D-05
 -0.36564868D-04  0.19125635D-04  0.17439233D-04 -0.34076565D-05 -0.19650967D-04
 -0.60101269D-06  0.95947972D-05  0.17307645D-04  0.25516031D-04 -0.61054290D-04
  0.12277169D-04 -0.44524302D-05  0.35637833D-04 -0.26671100D-04 -0.39065899D-04
  0.95944202D-05  0.17306965D-04  0.25515029D-04 -0.61054010D-04  0.12288752D-04
 -0.44658836D-05  0.19785877D-04 -0.24077981D-04  0.50349463D-04  0.95942690D-05
  0.17306692D-04  0.25514626D-04 -0.61050923D-04  0.12270410D-04 -0.44446935D-05
  0.25771101D-04  0.53248316D-04  0.30277525D-05  0.37807988D-04  0.70507761D-04
  0.11865416D-03  0.18682202D-03  0.24781056D-03  0.16143585D-03  0.17039683D-03
  0.28715841D-03  0.61198554D-04 -0.22994135D-03  0.15931511D-05 -0.78435174D-04
  0.54361524D-04 -0.27976334D-04  0.19394350D-04  0.37050092D-04 -0.21690160D-05
 -0.69405231D-07 -0.37945723D-06  0.86346078D+02  0.11548172D+03  0.13339030D+03
  0.26761535D+01  0.35791645D+01  0.41342111D+01  0.15191066D+02  0.20316968D+02
  0.23467665D+02  0.11102555D+03  0.52367015D+02  0.92547637D+01  0.34410529D+01
  0.16230289D+01  0.28683608D+00  0.19532982D+02  0.92130506D+01  0.16282121D+01
  0.98579139D-01  0.20593651D+00  0.13122763D+00  0.30552687D-02  0.63826014D-02
  0.40671451D-02  0.17343285D-01  0.36230947D-01  0.23087219D-01 -0.36892869D-01
 -0.11433329D-02 -0.64907453D-02  0.10320481D-01  0.31979187D-03  0.18157770D-02
 -0.10590871D-02 -0.32800543D-04 -0.18635009D-03  0.12082273D-03  0.37366184D-05
  0.21264152D-04  0.43775091D-03  0.32631254D-03  0.15126090D-03  0.35368457D-04
 -0.22886536D-03 -0.17060305D-03 -0.79082375D-04 -0.18491372D-04 -0.20888554D-03
 -0.15570949D-03 -0.72178528D-04 -0.16877085D-04  0.41680850D-04  0.31070145D-04
  0.14402444D-04  0.33676398D-05  0.23441557D-03  0.17474033D-03  0.81000199D-04
  0.18939805D-04  0.72813434D-05  0.54277299D-05  0.25160030D-05  0.58830234D-06
 -0.92028545D-05  0.48122402D-05  0.43906143D-05 -0.87187370D-06 -0.49355832D-05
 -0.15188159D-06  0.16045978D-05 -0.83920572D-06 -0.76539203D-06  0.15131718D-06
  0.86177584D-06  0.26469739D-07 -0.23407960D-06 -0.43712170D-06 -0.74410258D-06
 -0.11534837D-05 -0.15532849D-05 -0.11772929D-05  0.25972155D-05  0.60499916D-05
  0.14757354D-05 -0.14312314D-04  0.15434885D-04 -0.13994630D-04  0.17740143D-04
 -0.16376705D-03  0.17055160D-04  0.51937409D-06  0.30075269D-05 -0.88391982D-04
 -0.11319161D-03 -0.12111381D-03 -0.96371837D-04 -0.22180494D-04 -0.27176456D-05
 -0.34801199D-05 -0.37236910D-05 -0.29629893D-05 -0.68194786D-06 -0.15570017D-04
 -0.19938408D-04 -0.21333883D-04 -0.16975648D-04 -0.39070363D-05  0.67352542D-04
 -0.13995875D-04  0.20715212D-05 -0.43046261D-06  0.11863362D-04 -0.24652095D-05
  0.25951742D-04  0.79716503D-06  0.45719278D-05 -0.14054985D-04 -0.43167028D-06
 -0.24761397D-05  0.11506789D-04  0.35266258D-06  0.20280423D-05  0.29863483D-06
 -0.15599789D-06 -0.14263695D-06  0.28110293D-07  0.16035576D-06  0.52318483D-08
MO    5     MO 0.0        OCC NO =    2.0000000  ORB. ENERGY =  -56.025935
  0.16015042D-08  0.29813488D-08  0.49042907D-08  0.65856394D-08  0.62006277D-08
  0.50954686D-09 -0.45201164D-08 -0.12010796D-07  0.16191391D-10 -0.13367782D-05
 -0.12508951D-05 -0.96886658D-06 -0.67409993D-05 -0.63079145D-05 -0.48857236D-05
  0.86730571D-05  0.81158446D-05  0.62860353D-05  0.10710214D-07  0.66307464D-06
  0.33861614D-05 -0.43619031D-05  0.23626670D-07 -0.11167431D-05 -0.56674941D-05
  0.72915643D-05  0.48655321D-07  0.28943888D-06  0.13712342D-05 -0.17597436D-05
  0.49912391D-06  0.82746948D-06 -0.13265934D-05  0.23928688D-05 -0.31843897D-05
  0.19480789D-05 -0.30868571D-06 -0.55682498D-06 -0.82090680D-06  0.44467718D-06
  0.71418645D-05 -0.79975819D-05 -0.61277331D-05  0.90723852D-05 -0.25926647D-05
  0.87629701D-06  0.15807148D-05  0.23303902D-05 -0.13562059D-05 -0.19832265D-04
  0.22216366D-04  0.15480122D-04 -0.29652901D-05  0.12455652D-04 -0.55286913D-06
 -0.99729702D-06 -0.14702787D-05  0.81593243D-06  0.12700588D-04 -0.14224633D-04
 -0.94708860D-05 -0.69457806D-05 -0.87771564D-05 -0.39224944D-07 -0.73150229D-07
 -0.12310104D-06 -0.19382368D-06 -0.25709793D-06 -0.16748610D-06 -0.16053126D-06
 -0.27053261D-06 -0.57655301D-07  0.16652243D-06  0.97302142D-07 -0.30783592D-07
  0.24305809D-07 -0.12463362D-07  0.85673166D-08  0.16362690D-07  0.10021085D-05
  0.51156166D-05 -0.65812896D-05 -0.10441016D+02 -0.13964114D+02 -0.16129629D+02
 -0.53444965D+02 -0.71478829D+02 -0.82563562D+02  0.68761974D+02  0.91964236D+02
  0.10622579D+03 -0.13425327D+02 -0.63322753D+01 -0.11190959D+01 -0.68720912D+02
 -0.32413342D+02 -0.57283736D+01  0.88415916D+02  0.41702813D+02  0.73700913D+01
 -0.11912039D-01 -0.24884816D-01 -0.15857195D-01 -0.60974962D-01 -0.12737959D+00
 -0.81169299D-01  0.78450033D-01  0.16388585D+00  0.10443195D+00  0.44323153D-02
  0.22688599D-01 -0.29191053D-01 -0.12263511D-02 -0.62778841D-02  0.80771145D-02
  0.12081601D-03  0.61858457D-03 -0.79587536D-03 -0.12093036D-04 -0.61952071D-04
  0.79709812D-04 -0.74775940D-04 -0.55740209D-04 -0.25838156D-04 -0.60415858D-05
 -0.10757203D-04 -0.80187393D-05 -0.37170553D-05 -0.86913742D-06  0.85533143D-04
  0.63758948D-04  0.29555211D-04  0.69107232D-05 -0.38712281D-03 -0.28857285D-03
 -0.13376682D-03 -0.31277917D-04  0.48158615D-03  0.35898863D-03  0.16640778D-03
  0.38910163D-04 -0.48778697D-04 -0.36361091D-04 -0.16855042D-04 -0.39411164D-05
  0.10441679D-05  0.11782190D-06 -0.11619898D-05  0.54274302D-05 -0.67446772D-05
  0.60598952D-06 -0.14417295D-06 -0.64428387D-08  0.15061579D-06 -0.75121283D-06
  0.93141029D-06 -0.63517704D-07 -0.94913999D-10 -0.17724299D-09 -0.30171681D-09
 -0.46771161D-09 -0.62982198D-09 -0.47736571D-09  0.10527661D-08  0.24523286D-08
  0.59818067D-09 -0.58065069D-08  0.62740418D-08 -0.56445403D-08  0.73128370D-08
 -0.74571651D-07  0.10345917D-06  0.48812568D-06 -0.62632827D-06  0.48665700D-05
  0.62319556D-05  0.66681257D-05  0.53059144D-05  0.12211846D-05  0.24964166D-04
  0.31968219D-04  0.34205652D-04  0.27217882D-04  0.62643413D-05 -0.32122025D-04
 -0.41134317D-04 -0.44013278D-04 -0.35021938D-04 -0.80604866D-05 -0.39183133D-05
  0.81422646D-06 -0.20091185D-04  0.41749531D-05  0.25851476D-04 -0.53719431D-05
 -0.12245432D-05 -0.62899271D-05  0.80937732D-05  0.63677658D-06  0.32720797D-05
 -0.42105484D-05 -0.19693255D-06 -0.10285397D-05  0.13241067D-05 -0.38217533D-07
 -0.36404046D-06  0.40225799D-06 -0.72692333D-07  0.18610205D-06 -0.79643802D-06
MO    6     MO 0.0        OCC NO =    2.0000000  ORB. ENERGY =  -56.025935
 -0.13928693D-09 -0.25929555D-09 -0.42653873D-09 -0.57276993D-09 -0.53928448D-09
 -0.44316596D-10  0.31783004D-09  0.84453394D-09 -0.11384907D-11 -0.14277331D-05
 -0.13360064D-05 -0.10347886D-05  0.87649993D-05  0.82018798D-05  0.63526729D-05
  0.65991559D-05  0.61751840D-05  0.47829187D-05 -0.98380593D-10  0.71886392D-06
 -0.44030050D-05 -0.33173560D-05 -0.78013607D-08 -0.12009388D-05  0.73695125D-05
  0.55469953D-05 -0.78024587D-08  0.28882117D-06 -0.17823234D-05 -0.13415923D-05
  0.60684887D-06 -0.91238651D-06  0.30553764D-06 -0.37033183D-05 -0.28576650D-05
  0.75923063D-06 -0.82602931D-06 -0.14900390D-05 -0.21967103D-05  0.12603589D-05
  0.18784807D-04 -0.21039039D-04 -0.17898768D-04  0.17000208D-05  0.68390298D-05
  0.14020360D-06  0.25290728D-06  0.37285200D-06 -0.20807105D-06 -0.32098428D-05
  0.35973443D-05  0.35218802D-05 -0.87370373D-05 -0.23471152D-05  0.68315956D-06
  0.12323224D-05  0.18167680D-05 -0.10334468D-05 -0.15569533D-04  0.17442447D-04
  0.14187298D-04  0.81291905D-05 -0.36741570D-05  0.26088127D-08  0.48651503D-08
  0.81873300D-08  0.12891024D-07  0.17099332D-07  0.11139337D-07  0.10188277D-07
  0.17169622D-07  0.36591513D-08 -0.88611111D-08 -0.92406185D-08  0.49779348D-08
 -0.37255842D-08  0.16205565D-08 -0.87684720D-09 -0.10788589D-08  0.10865877D-05
 -0.66521277D-05 -0.50054687D-05 -0.11354113D+02 -0.15185316D+02 -0.17540211D+02
  0.69498648D+02  0.92949485D+02  0.10736383D+03  0.52293501D+02  0.69938828D+02
  0.80784742D+02 -0.14599410D+02 -0.68860506D+01 -0.12169640D+01  0.89363150D+02
  0.42149592D+02  0.74490500D+01  0.67240329D+02  0.31715001D+02  0.56049566D+01
 -0.12953829D-01 -0.27061164D-01 -0.17244016D-01  0.79290491D-01  0.16564160D+00
  0.10555076D+00  0.59661268D-01  0.12463522D+00  0.79420522D-01  0.48201014D-02
 -0.29503760D-01 -0.22199785D-01 -0.13337222D-02  0.81636277D-02  0.61426342D-02
  0.13142068D-03 -0.80439538D-03 -0.60525886D-03 -0.13162873D-04  0.80561518D-04
  0.60617797D-04 -0.81570087D-04 -0.60804768D-04 -0.28185813D-04 -0.65905247D-05
  0.14408157D-04  0.10740268D-04  0.49786095D-05  0.11641193D-05  0.67161930D-04
  0.50064500D-04  0.23207203D-04  0.54264054D-05  0.49658603D-03  0.37016999D-03
  0.17159085D-03  0.40122091D-04  0.36106118D-03  0.26914574D-03  0.12476146D-03
  0.29172246D-04  0.10181097D-03  0.75892921D-04  0.35179867D-04  0.82259038D-05
  0.11382351D-05 -0.16303473D-06 -0.97520038D-06 -0.69318714D-05 -0.50333308D-05
 -0.14891406D-05 -0.15616539D-06  0.11212668D-07  0.14495272D-06  0.95148890D-06
  0.68885556D-06  0.22446460D-06  0.20338156D-11  0.37979599D-11  0.64651829D-11
  0.10022117D-10  0.13495815D-10  0.10228985D-10 -0.22417642D-10 -0.52219982D-10
 -0.12737683D-10  0.12431590D-09 -0.13595522D-09  0.59972959D-10 -0.24863629D-09
  0.78849672D-08  0.10275458D-06 -0.63443238D-06 -0.47755836D-06  0.52967132D-05
  0.67827817D-05  0.72575037D-05  0.57748901D-05  0.13291219D-05 -0.32463098D-04
 -0.41571083D-04 -0.44480613D-04 -0.35393802D-04 -0.81460731D-05 -0.24428292D-04
 -0.31281998D-04 -0.33471402D-04 -0.26633630D-04 -0.61298726D-05 -0.42626632D-05
  0.88578245D-06  0.26126264D-04 -0.54290441D-05  0.19659887D-04 -0.40853293D-05
 -0.13346727D-05  0.81794092D-05  0.61549494D-05  0.69435004D-06 -0.42550125D-05
 -0.32018910D-05 -0.21857474D-06  0.13376190D-05  0.10064119D-05 -0.63655785D-07
  0.39913321D-06 -0.33547742D-06  0.39600872D-06  0.36896546D-06 -0.64849370D-06
MO    7     MO 0.0        OCC NO =    2.0000000  ORB. ENERGY =  -10.082986
  0.43813979D+00  0.81563789D+00  0.13417167D+01  0.18017003D+01  0.16963687D+01
  0.13940191D+00  0.37087948D+00  0.98549622D+00 -0.13285178D-02  0.31762687D-02
  0.29722049D-02  0.23020876D-02  0.97081383D-04  0.90844255D-04  0.70362387D-04
  0.55997473D-03  0.52399838D-03  0.40585700D-03  0.79382615D-02 -0.16314611D-02
 -0.49837871D-04 -0.28763535D-03 -0.15042450D-02 -0.62595055D-04 -0.19148124D-05
 -0.11036962D-04 -0.68261459D-03  0.80797508D-04  0.24696923D-05  0.14244764D-04
 -0.11944983D-02  0.62469093D-03  0.56980736D-03 -0.11112305D-03 -0.64206723D-03
 -0.19590260D-04  0.56477689D-04  0.10187769D-03  0.15019457D-03 -0.12892320D-02
  0.73245130D-03  0.27755291D-04 -0.17080339D-03 -0.12147337D-02 -0.20060395D-02
  0.56477944D-04  0.10187815D-03  0.15019525D-03 -0.12892283D-02  0.73245187D-03
  0.27752122D-04 -0.86117266D-03 -0.11019789D-02  0.18902245D-02  0.56478720D-04
  0.10187955D-03  0.15019732D-03 -0.12891898D-02  0.73243581D-03  0.27765855D-04
 -0.60040452D-03  0.22668648D-02 -0.17198381D-03 -0.25472563D-06 -0.47503543D-06
 -0.79941453D-06 -0.12586853D-05 -0.16695864D-05 -0.10876498D-05  0.39872568D-05
  0.67194577D-05  0.14320357D-05 -0.37203101D-04  0.66849641D-04 -0.81731014D-04
  0.63400029D-04 -0.17036834D-04  0.26482852D-04  0.12165984D-03  0.19647691D-04
  0.60146867D-06  0.34637420D-05 -0.12452815D-03 -0.16654751D-03 -0.19237523D-03
 -0.38304593D-05 -0.51229661D-05 -0.59174211D-05 -0.21950724D-04 -0.29357528D-04
 -0.33910210D-04 -0.47623684D-03 -0.22462490D-03 -0.39697706D-04 -0.14644776D-04
 -0.69074484D-05 -0.12207456D-05 -0.83947043D-04 -0.39594996D-04 -0.69975792D-05
  0.68679415D-04  0.14347456D-03  0.91425395D-04  0.21115792D-05  0.44111893D-05
  0.28109145D-05  0.12106271D-04  0.25290575D-04  0.16115754D-04 -0.31754231D-03
 -0.97570368D-05 -0.55974742D-04  0.28154288D-03  0.86455477D-05  0.49629810D-04
 -0.11066351D-03 -0.33961263D-05 -0.19507946D-04  0.27724426D-04  0.85365829D-06
  0.48869478D-05 -0.79263109D-03 -0.59085078D-03 -0.27388657D-03 -0.64041304D-04
  0.41459456D-03  0.30905111D-03  0.14325944D-03  0.33497521D-04  0.37803652D-03
  0.28179966D-03  0.13062713D-03  0.30543783D-04 -0.73681373D-04 -0.54924286D-04
 -0.25459938D-04 -0.59531493D-05 -0.42602708D-03 -0.31757325D-03 -0.14720984D-03
 -0.34421221D-04 -0.12983408D-04 -0.96782184D-05 -0.44863003D-05 -0.10490055D-05
  0.80401257D-04 -0.42054524D-04 -0.38346733D-04  0.74740708D-05  0.43214688D-04
  0.13170433D-05 -0.31792325D-04  0.16628791D-04  0.15163534D-04 -0.29559631D-05
 -0.17088229D-04 -0.52093962D-06 -0.11236970D-04 -0.20983987D-04 -0.35720576D-04
 -0.55372878D-04 -0.74565298D-04 -0.56515838D-04 -0.48970271D-04 -0.11407206D-03
 -0.27824860D-04  0.14162413D-03 -0.97572456D-04 -0.17967347D-04  0.22941243D-03
  0.53923323D-04 -0.37807980D-05 -0.11829249D-06 -0.66615612D-06  0.14482891D-02
  0.18546273D-02  0.19844314D-02  0.15790378D-02  0.36342402D-03  0.44217659D-04
  0.56623554D-04  0.60586596D-04  0.48209543D-04  0.11095684D-04  0.25534776D-03
  0.32698922D-03  0.34987496D-03  0.27840006D-03  0.64075264D-04 -0.79777804D-03
  0.16577847D-03 -0.24357090D-04  0.50614092D-05 -0.14065631D-03  0.29228416D-04
 -0.22240274D-03 -0.67884690D-05 -0.39211565D-04 -0.13495867D-03 -0.41229355D-05
 -0.23794689D-04 -0.74062419D-04 -0.22598231D-05 -0.13058354D-04  0.21367100D-03