 Single Point Energy
GAUSSIAN             31 MOL ORBITALS    210 PRIMITIVES        6 NUCLEI   B3LYP
  C    1    (CENTRE  1)  -0.56416973  0.00796427  0.06671475  CHARGE =  6.0
  H    2    (CENTRE  2)  -0.96471365 -1.02078698  1.78535722  CHARGE =  1.0
  H    3    (CENTRE  3)  -1.36045783 -0.90288620 -1.57911945  CHARGE =  1.0
  H    4    (CENTRE  4)  -1.11040848  1.97174247  0.19976710  CHARGE =  1.0
  Br   5    (CENTRE  5)   3.25481228 -0.04508232 -0.38433058  CHARGE = 35.0
  Cl   6    (CENTRE  6)  -6.29987244  0.08717801  0.74383982  CHARGE = 17.0
CENTRE ASSIGNMENTS    1  1  1  1  1  1  1  1  1  1  1  1  1  1  1  1  1  1  1  1
CENTRE ASSIGNMENTS    1  1  1  1  1  1  1  1  1  1  1  1  1  1  1  1  2  2  2  2
CENTRE ASSIGNMENTS    2  2  2  2  2  3  3  3  3  3  3  3  3  3  4  4  4  4  4  4
CENTRE ASSIGNMENTS    4  4  4  5  5  5  5  5  5  5  5  5  5  5  5  5  5  5  5  5
CENTRE ASSIGNMENTS    5  5  5  5  5  5  5  5  5  5  5  5  5  5  5  5  5  5  5  5
CENTRE ASSIGNMENTS    5  5  5  5  5  5  5  5  5  5  5  5  5  5  5  5  5  5  5  5
CENTRE ASSIGNMENTS    5  5  5  5  5  5  5  5  5  5  5  5  5  5  5  5  5  5  5  5
CENTRE ASSIGNMENTS    5  5  5  5  5  5  5  5  5  5  5  5  5  5  5  5  5  6  6  6
CENTRE ASSIGNMENTS    6  6  6  6  6  6  6  6  6  6  6  6  6  6  6  6  6  6  6  6
CENTRE ASSIGNMENTS    6  6  6  6  6  6  6  6  6  6  6  6  6  6  6  6  6  6  6  6
CENTRE ASSIGNMENTS    6  6  6  6  6  6  6  6  6  6
TYPE ASSIGNMENTS      1  1  1  1  1  1  1  1  1  2  2  2  3  3  3  4  4  4  1  2
TYPE ASSIGNMENTS      3  4  1  2  3  4  1  2  3  4  5  6  7  8  9 10  1  1  1  1
TYPE ASSIGNMENTS      1  1  2  3  4  1  1  1  1  1  1  2  3  4  1  1  1  1  1  1
TYPE ASSIGNMENTS      2  3  4  1  1  1  1  1  1  1  1  1  1  1  1  1  1  1  1  2
TYPE ASSIGNMENTS      3  4  2  2  2  3  3  3  4  4  4  2  2  2  3  3  3  4  4  4
TYPE ASSIGNMENTS      2  2  2  3  3  3  4  4  4  2  3  4  2  3  4  2  3  4  2  3
TYPE ASSIGNMENTS      4  5  5  5  5  6  6  6  6  7  7  7  7  8  8  8  8  9  9  9
TYPE ASSIGNMENTS      9 10 10 10 10  5  6  7  8  9 10  5  6  7  8  9 10  1  1  1
TYPE ASSIGNMENTS      1  1  1  1  1  1  1  1  1  1  1  2  3  4  2  2  2  2  2  3
TYPE ASSIGNMENTS      3  3  3  3  4  4  4  4  4  2  2  3  3  4  4  2  3  4  2  3
TYPE ASSIGNMENTS      4  2  3  4  5  6  7  8  9 10
EXPONENTS  0.4563240D+04 0.6820240D+03 0.1549730D+03 0.4445530D+02 0.1302900D+02
EXPONENTS  0.1827730D+01 0.2096420D+02 0.4803310D+01 0.1459330D+01 0.2096420D+02
EXPONENTS  0.4803310D+01 0.1459330D+01 0.2096420D+02 0.4803310D+01 0.1459330D+01
EXPONENTS  0.2096420D+02 0.4803310D+01 0.1459330D+01 0.4834560D+00 0.4834560D+00
EXPONENTS  0.4834560D+00 0.4834560D+00 0.1455850D+00 0.1455850D+00 0.1455850D+00
EXPONENTS  0.1455850D+00 0.4380000D-01 0.4380000D-01 0.4380000D-01 0.4380000D-01
EXPONENTS  0.6260000D+00 0.6260000D+00 0.6260000D+00 0.6260000D+00 0.6260000D+00
EXPONENTS  0.6260000D+00 0.3386500D+02 0.5094790D+01 0.1158790D+01 0.3258400D+00
EXPONENTS  0.1027410D+00 0.3600000D-01 0.7500000D+00 0.7500000D+00 0.7500000D+00
EXPONENTS  0.3386500D+02 0.5094790D+01 0.1158790D+01 0.3258400D+00 0.1027410D+00
EXPONENTS  0.3600000D-01 0.7500000D+00 0.7500000D+00 0.7500000D+00 0.3386500D+02
EXPONENTS  0.5094790D+01 0.1158790D+01 0.3258400D+00 0.1027410D+00 0.3600000D-01
EXPONENTS  0.7500000D+00 0.7500000D+00 0.7500000D+00 0.4397000D+06 0.6603000D+05
EXPONENTS  0.1514000D+05 0.4317000D+04 0.1414000D+04 0.5239000D+03 0.5239000D+03
EXPONENTS  0.2077000D+03 0.8654000D+02 0.3052000D+02 0.1298000D+02 0.4412000D+01
EXPONENTS  0.1862000D+01 0.3932000D+00 0.1400000D+00 0.3500000D-01 0.3500000D-01
EXPONENTS  0.3500000D-01 0.3500000D-01 0.2957000D+04 0.7003000D+03 0.2246000D+03
EXPONENTS  0.2957000D+04 0.7003000D+03 0.2246000D+03 0.2957000D+04 0.7003000D+03
EXPONENTS  0.2246000D+03 0.8259000D+02 0.3319000D+02 0.1420000D+02 0.8259000D+02
EXPONENTS  0.3319000D+02 0.1420000D+02 0.8259000D+02 0.3319000D+02 0.1420000D+02
EXPONENTS  0.1420000D+02 0.7438000D+01 0.3526000D+01 0.1420000D+02 0.7438000D+01
EXPONENTS  0.3526000D+01 0.1420000D+02 0.7438000D+01 0.3526000D+01 0.1595000D+01
EXPONENTS  0.1595000D+01 0.1595000D+01 0.8462000D+00 0.8462000D+00 0.8462000D+00
EXPONENTS  0.3186000D+00 0.3186000D+00 0.3186000D+00 0.1096000D+00 0.1096000D+00
EXPONENTS  0.1096000D+00 0.1348000D+03 0.3639000D+02 0.1216000D+02 0.4341000D+01
EXPONENTS  0.1348000D+03 0.3639000D+02 0.1216000D+02 0.4341000D+01 0.1348000D+03
EXPONENTS  0.3639000D+02 0.1216000D+02 0.4341000D+01 0.1348000D+03 0.3639000D+02
EXPONENTS  0.1216000D+02 0.4341000D+01 0.1348000D+03 0.3639000D+02 0.1216000D+02
EXPONENTS  0.4341000D+01 0.1348000D+03 0.3639000D+02 0.1216000D+02 0.4341000D+01
EXPONENTS  0.1535000D+01 0.1535000D+01 0.1535000D+01 0.1535000D+01 0.1535000D+01
EXPONENTS  0.1535000D+01 0.4510000D+00 0.4510000D+00 0.4510000D+00 0.4510000D+00
EXPONENTS  0.4510000D+00 0.4510000D+00 0.1058190D+06 0.1587200D+05 0.3619650D+04
EXPONENTS  0.1030800D+04 0.3399080D+03 0.1245380D+03 0.1245380D+03 0.4951350D+02
EXPONENTS  0.2080560D+02 0.6583460D+01 0.2564680D+01 0.5597630D+00 0.1832730D+00
EXPONENTS  0.4830000D-01 0.4830000D-01 0.4830000D-01 0.4830000D-01 0.5897760D+03
EXPONENTS  0.1398490D+03 0.4514130D+02 0.1687330D+02 0.2771520D+01 0.5897760D+03
EXPONENTS  0.1398490D+03 0.4514130D+02 0.1687330D+02 0.2771520D+01 0.5897760D+03
EXPONENTS  0.1398490D+03 0.4514130D+02 0.1687330D+02 0.2771520D+01 0.6741100D+01
EXPONENTS  0.2771520D+01 0.6741100D+01 0.2771520D+01 0.6741100D+01 0.2771520D+01
EXPONENTS  0.1023870D+01 0.1023870D+01 0.1023870D+01 0.3813680D+00 0.3813680D+00
EXPONENTS  0.3813680D+00 0.1094370D+00 0.1094370D+00 0.1094370D+00 0.7500000D+00
EXPONENTS  0.7500000D+00 0.7500000D+00 0.7500000D+00 0.7500000D+00 0.7500000D+00
MO    1     MO 0.0        OCC NO =    2.0000000  ORB. ENERGY = -482.690247
  0.21485635D-06  0.39997505D-06  0.65795519D-06  0.88352340D-06  0.83187058D-06
  0.68360344D-07 -0.48282273D-06 -0.12829504D-05  0.17295068D-08  0.45204807D-05
  0.42300562D-05  0.32763420D-05 -0.62793198D-07 -0.58758962D-07 -0.45511087D-07
 -0.53389246D-06 -0.49959180D-06 -0.38695316D-06  0.60952760D-07 -0.90208332D-06
  0.12442606D-07  0.10647588D-06  0.55497185D-05  0.11416661D-05 -0.15994237D-07
 -0.13491213D-06  0.87853340D-05  0.30265571D-05 -0.41975359D-07 -0.35740815D-06
 -0.25225436D-05  0.12874719D-05  0.12350717D-05  0.10603975D-06  0.90025069D-06
 -0.12467980D-07 -0.21339780D-06 -0.38493919D-06 -0.56750183D-06 -0.10927938D-05
 -0.15507193D-05 -0.43667586D-06 -0.10518813D-07 -0.71038243D-06  0.11497443D-05
 -0.21338593D-06 -0.38491777D-06 -0.56747025D-06 -0.10929477D-05 -0.15508153D-05
 -0.43680399D-06 -0.28241800D-06 -0.62955266D-06 -0.11624029D-05 -0.21340931D-06
 -0.38495995D-06 -0.56753243D-06 -0.10926501D-05 -0.15505929D-05 -0.43653097D-06
 -0.11075113D-06  0.13454600D-05  0.60253665D-07  0.38584363D+01  0.71955616D+01
  0.12109068D+02  0.19065835D+02  0.25289927D+02  0.16475089D+02  0.96359545D+01
  0.16238831D+02  0.34607831D+01  0.81730946D-01 -0.11320071D-01  0.24943643D-02
 -0.64859339D-03  0.74825380D-04 -0.26172357D-04 -0.53464787D-05  0.57433494D-06
 -0.80071752D-08 -0.67851810D-07 -0.23829105D-02 -0.31869728D-02 -0.36811995D-02
  0.33115459D-04  0.44289564D-04  0.51157863D-04  0.28143897D-03  0.37640455D-03
  0.43477630D-03 -0.26697924D-03 -0.12592513D-03 -0.22254606D-04  0.37111527D-05
  0.17504259D-05  0.30935080D-06  0.31533098D-04  0.14873101D-04  0.26285065D-05
  0.69290196D-05  0.14475051D-04  0.92238462D-05 -0.96423332D-07 -0.20143292D-06
 -0.12835784D-06 -0.81847148D-06 -0.17098258D-05 -0.10895416D-05 -0.16857309D-04
  0.23472838D-06  0.19913360D-05  0.12171674D-04 -0.16949054D-06 -0.14378343D-05
 -0.49239589D-05  0.68538990D-07  0.58164724D-06  0.37436994D-05 -0.52040724D-07
 -0.44218256D-06 -0.30037286D-04 -0.22390686D-04 -0.10379115D-04 -0.24268881D-05
  0.15330399D-04  0.11427735D-04  0.52972819D-05  0.12386326D-05  0.14706887D-04
  0.10962951D-04  0.50818331D-05  0.11882555D-05  0.12641078D-05  0.94230353D-06
  0.43680112D-06  0.10213467D-06  0.10721242D-04  0.79919326D-05  0.37046291D-05
  0.86623188D-06 -0.14896036D-06 -0.11103948D-06 -0.51471917D-07 -0.12035379D-07
  0.55287200D-05 -0.28217758D-05 -0.27069442D-05 -0.23229008D-06 -0.19730793D-05
  0.27403487D-07 -0.16515111D-05  0.84290829D-06  0.80860284D-06  0.69363806D-07
  0.58937100D-06 -0.81844683D-08  0.17852382D-06  0.33337648D-06  0.56749939D-06
  0.87971915D-06  0.11846327D-05  0.89787755D-06 -0.64994349D-06 -0.15139878D-05
 -0.36929726D-06  0.24198384D-05 -0.23100672D-05  0.17646901D-05 -0.20803551D-05
  0.42252388D-05  0.71032251D-06 -0.97708538D-08 -0.83830964D-07 -0.11888618D-04
 -0.15224139D-04 -0.16289666D-04 -0.12961899D-04 -0.29832505D-05  0.16416046D-06
  0.21021802D-06  0.22493102D-06  0.17898054D-06  0.41193330D-07  0.14034858D-05
  0.17972538D-05  0.19230423D-05  0.15301898D-05  0.35218138D-06  0.10481532D-04
 -0.21780648D-05 -0.14472373D-06  0.30073627D-07 -0.12373702D-05  0.25712583D-06
  0.27283409D-05 -0.37682078D-07 -0.32209439D-06 -0.13966324D-05  0.19301109D-07
  0.16488743D-06  0.67926749D-06 -0.94120858D-08 -0.80211318D-07  0.61502140D-06
 -0.31390836D-06 -0.30111304D-06 -0.25583116D-07 -0.21931244D-06  0.30345248D-08
MO    2     MO 0.0        OCC NO =    2.0000000  ORB. ENERGY = -101.256937
  0.76007719D-06  0.14149542D-05  0.23275864D-05  0.31255579D-05  0.29428306D-05
  0.24183198D-06 -0.19709149D-05 -0.52370899D-05  0.70599631D-08 -0.16231925D-04
 -0.15189083D-04 -0.11764532D-04  0.22450144D-06  0.21007804D-06  0.16271356D-06
  0.19163012D-05  0.17931858D-05  0.13888917D-05  0.12566070D-05  0.10825267D-04
 -0.14837453D-06 -0.12769551D-05  0.17734501D-04 -0.16398926D-04  0.22751032D-06
  0.19367670D-05  0.14447003D-05  0.46553935D-05 -0.64359213D-07 -0.54962244D-06
 -0.69463897D-05  0.35462517D-05  0.34001380D-05  0.29127422D-06  0.24781252D-05
 -0.35304426D-07  0.32768364D-05  0.59109454D-05  0.87142916D-05 -0.26027881D-04
  0.19536574D-05 -0.70726833D-05  0.11380093D-04 -0.82095129D-05  0.11667162D-04
  0.32767385D-05  0.59107687D-05  0.87140310D-05 -0.26027999D-04  0.19556702D-05
 -0.70747925D-05  0.82983303D-05 -0.72899631D-05 -0.14521351D-04  0.32769283D-05
  0.59111111D-05  0.87145359D-05 -0.26027361D-04  0.19519705D-05 -0.70707277D-05
  0.10247268D-04  0.15089258D-04 -0.67644295D-06  0.90306075D-07  0.16841095D-06
  0.28341078D-06  0.44623278D-06  0.59190663D-06  0.38559678D-06 -0.31409105D-05
 -0.52931667D-05 -0.11280678D-05  0.19109104D-04 -0.26961028D-04  0.25609876D-04
 -0.17702778D-04  0.98787761D-05 -0.62179412D-05  0.37619617D-05 -0.99175428D-06
  0.13589103D-07  0.11701189D-06  0.24448809D-05  0.32698538D-05  0.37769334D-05
 -0.33685279D-07 -0.45051658D-07 -0.52038140D-07 -0.28855913D-06 -0.38592725D-06
 -0.44577575D-06 -0.69662594D-05 -0.32857502D-05 -0.58068694D-06  0.95884687D-07
  0.45225581D-07  0.79926662D-08  0.82213154D-06  0.38777179D-06  0.68530473D-07
  0.88297059D-06  0.18445675D-05  0.11754022D-05 -0.12157983D-07 -0.25398604D-07
 -0.16184593D-07 -0.10420805D-06 -0.21769556D-06 -0.13872078D-06 -0.36251484D-05
  0.49981393D-07  0.42788401D-06  0.32981836D-05 -0.45545626D-07 -0.38934150D-06
 -0.24523795D-05  0.33966288D-07  0.28957355D-06 -0.21359498D-05  0.29720756D-07
  0.25228648D-06  0.15038511D-03  0.11210153D-03  0.51964226D-04  0.12150493D-04
 -0.76753729D-04 -0.57214512D-04 -0.26521563D-04 -0.62013829D-05 -0.73631377D-04
 -0.54887018D-04 -0.25442663D-04 -0.59491098D-05 -0.63214790D-05 -0.47122184D-05
 -0.21843304D-05 -0.51074928D-06 -0.53667693D-04 -0.40005494D-04 -0.18544390D-04
 -0.43361269D-05  0.74458548D-06  0.55503615D-06  0.25728484D-06  0.60159418D-07
 -0.12128427D-04  0.61901225D-05  0.59383046D-05  0.50982959D-06  0.43282558D-05
 -0.60054008D-07  0.36949747D-05 -0.18858509D-05 -0.18091238D-05 -0.15531549D-06
 -0.13186181D-05  0.18302428D-07  0.12702097D+01  0.23719975D+01  0.40377987D+01
  0.62592646D+01  0.84287461D+01  0.63884629D+01  0.23318255D+01  0.54317882D+01
  0.13249410D+01  0.43852535D-01 -0.56458756D-02  0.63454379D-03 -0.16628072D-03
  0.35746041D-04  0.73636282D-05 -0.10189294D-06 -0.86943695D-06  0.15896626D-03
  0.20356652D-03  0.21781399D-03  0.17331743D-03  0.39889934D-04 -0.21848194D-05
 -0.27978017D-05 -0.29936179D-05 -0.23820607D-05 -0.54824402D-06 -0.18763078D-04
 -0.24027328D-04 -0.25708983D-04 -0.20456972D-04 -0.47082817D-05 -0.84680701D-04
  0.17596670D-04  0.11648127D-05 -0.24204836D-06  0.99948192D-05 -0.20769259D-05
 -0.28816593D-04  0.39692920D-06  0.34015238D-05  0.16381197D-04 -0.22604648D-06
 -0.19337935D-05 -0.10942140D-04  0.15123047D-06  0.12918435D-05 -0.39777498D-05
  0.20301580D-05  0.19475918D-05  0.16582452D-06  0.14186991D-05 -0.19570957D-07
MO    3     MO 0.0        OCC NO =    2.0000000  ORB. ENERGY =  -62.343254
  0.23161367D-05  0.43117035D-05  0.70927117D-05  0.95243214D-05  0.89675076D-05
  0.73691980D-06 -0.58072812D-05 -0.15431034D-04  0.20802111D-07  0.63767683D-04
  0.59670840D-04  0.46217372D-04 -0.88577942D-06 -0.82887129D-06 -0.64199285D-06
 -0.75312899D-05 -0.70474318D-05 -0.54585083D-05  0.10775287D-05 -0.13800812D-04
  0.19048890D-06  0.16290492D-05  0.77494167D-04  0.15798800D-04 -0.22136625D-06
 -0.18669794D-05  0.12489407D-03  0.42835277D-04 -0.59408587D-06 -0.50584466D-05
 -0.36740901D-04  0.18752054D-04  0.17988847D-04  0.15443402D-05  0.13112094D-04
 -0.18160309D-06 -0.30082938D-05 -0.54265329D-05 -0.80001398D-05 -0.15312977D-04
 -0.22080515D-04 -0.63001144D-05 -0.11186985D-06 -0.10050268D-04  0.16260904D-04
 -0.30081301D-05 -0.54262375D-05 -0.79997043D-05 -0.15315123D-04 -0.22081864D-04
 -0.63019405D-05 -0.39584212D-05 -0.89067226D-05 -0.16448670D-04 -0.30084525D-05
 -0.54268191D-05 -0.80005618D-05 -0.15310974D-04 -0.22078730D-04 -0.62980375D-05
 -0.15298099D-05  0.19033616D-04  0.84800546D-06 -0.12742128D+01 -0.23762675D+01
 -0.39989076D+01 -0.62963154D+01 -0.83517640D+01 -0.54407454D+01 -0.53840039D+01
 -0.90733023D+01 -0.19336818D+01  0.58199986D+01  0.24290377D+01  0.10325850D+00
 -0.11040844D-01  0.10806150D-02 -0.37297937D-03 -0.75517042D-04  0.81870035D-05
 -0.11413960D-06 -0.96720952D-06 -0.57210637D-01 -0.76515146D-01 -0.88380897D-01
  0.79493666D-03  0.10631711D-02  0.12280446D-02  0.67569528D-02  0.90369424D-02
  0.10438366D-01 -0.79444041D-01 -0.37471081D-01 -0.66222221D-02  0.11038810D-02
  0.52066352D-03  0.92016280D-04  0.93828832D-02  0.44255903D-02  0.78212961D-03
 -0.15421348D-03 -0.32215929D-03 -0.20528754D-03  0.21412244D-05  0.44731195D-05
  0.28503779D-05  0.18211668D-04  0.38045040D-04  0.24243202D-04 -0.62547476D-04
  0.87501338D-06  0.73929642D-05  0.11396250D-03 -0.15880617D-05 -0.13463778D-04
 -0.63335481D-04  0.88164383D-06  0.74816932D-05  0.51974605D-04 -0.72248634D-06
 -0.61389264D-05  0.64103521D-02  0.47784671D-02  0.22150397D-02  0.51792986D-03
 -0.32717878D-02 -0.24388879D-02 -0.11305370D-02 -0.26434688D-03 -0.31385643D-02
 -0.23395792D-02 -0.10845028D-02 -0.25358298D-03 -0.26901415D-03 -0.20053114D-03
 -0.92955428D-04 -0.21735227D-04 -0.22873873D-02 -0.17050865D-02 -0.79038617D-03
 -0.18481140D-03  0.31738343D-04  0.23658704D-04  0.10966900D-04  0.25643264D-05
  0.20869130D-04 -0.10650988D-04 -0.10218142D-04 -0.87913703D-06 -0.74503310D-05
  0.10394024D-06 -0.19569696D-04  0.99880845D-05  0.95816112D-05  0.82202933D-06
  0.69839055D-05 -0.97011173D-07  0.54066886D-06  0.10096484D-05  0.17187020D-05
  0.26642762D-05  0.35877230D-05  0.27192699D-05 -0.55127258D-05 -0.12841424D-04
 -0.31323254D-05  0.29239083D-04 -0.30220284D-04  0.24624911D-04 -0.29470893D-04
  0.59868550D-04  0.10092797D-04 -0.13883502D-06 -0.11911355D-05 -0.13657324D-03
 -0.17489082D-03 -0.18713130D-03 -0.14890281D-03 -0.34270779D-04  0.18858542D-05
  0.24149575D-05  0.25839786D-05  0.20561054D-05  0.47322367D-06  0.16122927D-04
  0.20646444D-04  0.22091474D-04  0.17578473D-04  0.40457797D-05  0.11044937D-03
 -0.22951407D-04 -0.15250247D-05  0.31690050D-06 -0.13038852D-04  0.27094765D-05
  0.34863187D-04 -0.48152579D-06 -0.41157953D-05 -0.19073487D-04  0.26360348D-06
  0.22518407D-05  0.94856946D-05 -0.13144444D-06 -0.11201248D-05  0.85261802D-05
 -0.43517830D-05 -0.41743972D-05 -0.35467343D-06 -0.30403837D-05  0.42070205D-07
MO    4     MO 0.0        OCC NO =    2.0000000  ORB. ENERGY =  -56.163122
 -0.73540157D-05 -0.13690183D-04 -0.22520222D-04 -0.30240879D-04 -0.28472927D-04
 -0.23398100D-05  0.21843643D-04  0.58042650D-04 -0.78245546D-07  0.12349870D-03
  0.11556436D-03  0.89509062D-04 -0.17158532D-05 -0.16056158D-05 -0.12436115D-05
 -0.14586154D-04 -0.13649047D-04 -0.10571714D-04  0.32832406D-04 -0.10591034D-03
  0.14719335D-05  0.12509060D-04 -0.94021398D-04 -0.31837929D-04  0.44246609D-06
  0.37600387D-05  0.36194345D-04  0.30249378D-04 -0.41966621D-06 -0.35723666D-05
 -0.96903902D-04  0.49457944D-04  0.47445959D-04  0.40664558D-05  0.34579261D-04
 -0.47975494D-06 -0.76669772D-05 -0.13830133D-04 -0.20389262D-04  0.41088927D-04
  0.11674802D-04  0.12614753D-04  0.62880382D-04 -0.45793373D-06 -0.80988365D-05
 -0.76672260D-05 -0.13830582D-04 -0.20389923D-04  0.41088966D-04  0.11674481D-04
  0.12614811D-04  0.63040117D-04 -0.50557900D-06 -0.67459047D-05 -0.76667073D-05
 -0.13829646D-04 -0.20388544D-04  0.41088002D-04  0.11674605D-04  0.12614463D-04
  0.62938302D-04 -0.16609447D-05 -0.74609095D-05 -0.91021100D-03 -0.16974439D-02
 -0.28565477D-02 -0.44976596D-02 -0.59659323D-02 -0.38864986D-02 -0.38929383D-02
 -0.65605090D-02 -0.13981609D-02  0.43715290D-02  0.16242576D-02  0.15155233D-03
 -0.68944307D-04 -0.57586408D-05  0.27170087D-04 -0.83473165D-04  0.36382117D-05
 -0.50632628D-07 -0.42976751D-06  0.87096098D+02  0.11648482D+03  0.13454895D+03
 -0.12098307D+01 -0.16180622D+01 -0.18689867D+01 -0.10286538D+02 -0.13757510D+02
 -0.15890986D+02  0.11199178D+03  0.52822757D+02  0.93353066D+01 -0.15556506D+01
 -0.73374804D+00 -0.12967447D+00 -0.13226858D+02 -0.62386639D+01 -0.11025521D+01
  0.99662954D-01  0.20820065D+00  0.13267039D+00 -0.13843947D-02 -0.28920663D-02
 -0.18428933D-02 -0.11770753D-01 -0.24589663D-01 -0.15669117D-01 -0.37717368D-01
  0.52392488D-03  0.44546337D-02  0.10772484D-01 -0.14963950D-03 -0.12722920D-02
 -0.11743323D-02  0.16312992D-04  0.13869577D-03  0.11024573D-03 -0.15317559D-05
 -0.13020833D-04 -0.51763976D-02 -0.38586406D-02 -0.17886578D-02 -0.41823145D-03
  0.26420037D-02  0.19694281D-02  0.91292070D-03  0.21346294D-03  0.25343939D-02
  0.18892126D-02  0.87573710D-03  0.20476851D-03  0.21739107D-03  0.16204977D-03
  0.75117537D-04  0.17564297D-04  0.18470628D-02  0.13768555D-02  0.63823600D-03
  0.14923501D-03 -0.25629845D-04 -0.19105249D-04 -0.88561633D-05 -0.20707852D-05
 -0.17488603D-03  0.89260220D-04  0.85625806D-04  0.73355916D-05  0.62406324D-04
 -0.86701938D-06  0.65989017D-04 -0.33680208D-04 -0.32308808D-04 -0.27685591D-05
 -0.23547354D-04  0.32706132D-06  0.38916925D-07  0.72673706D-07  0.12371084D-06
  0.19177253D-06  0.25824151D-06  0.19573093D-06 -0.43578977D-06 -0.10151350D-05
 -0.24761532D-06  0.22563366D-05 -0.21053195D-05  0.34905088D-06  0.25733794D-05
  0.20132458D-04  0.36698092D-05 -0.50226905D-07 -0.43294691D-06  0.35951445D-04
  0.46038137D-04  0.49260313D-04  0.39197071D-04  0.90214159D-05 -0.50063466D-06
 -0.64109486D-06 -0.68596463D-06 -0.54583098D-06 -0.12562592D-06 -0.42470663D-05
 -0.54386414D-05 -0.58192880D-05 -0.46304831D-05 -0.10657305D-05 -0.27794615D-04
  0.57757277D-05  0.38712971D-06 -0.80445649D-07  0.32835284D-05 -0.68231800D-06
 -0.10412485D-04  0.14489763D-06  0.12299946D-05  0.68499471D-05 -0.95220425D-07
 -0.80909568D-06 -0.96073670D-06  0.13431601D-07  0.11354157D-06 -0.42703244D-05
  0.21796449D-05  0.20906795D-05  0.17987304D-06  0.15242673D-05 -0.21343640D-07
MO    5     MO 0.0        OCC NO =    2.0000000  ORB. ENERGY =  -56.159913
 -0.12477876D-09 -0.23228724D-09 -0.38211032D-09 -0.51311003D-09 -0.48311244D-09
 -0.39700565D-10  0.41113873D-09  0.10924726D-08 -0.14727294D-11  0.92981221D-06
  0.87007514D-06  0.67390683D-06 -0.50429929D-04 -0.47189988D-04 -0.36550470D-04
  0.13798287D-04  0.12911797D-04  0.10000685D-04 -0.11715998D-08 -0.89561040D-06
  0.48598759D-04 -0.13297158D-04  0.16864594D-08 -0.19579173D-06  0.10627411D-04
 -0.29077122D-05  0.81537176D-08  0.13449268D-06 -0.74541868D-05  0.20398607D-05
 -0.99657308D-06  0.27356176D-04 -0.26359602D-04  0.38805111D-04 -0.15831859D-04
  0.17416982D-04  0.12990646D-05  0.23433272D-05  0.34546820D-05  0.21895448D-04
  0.72510736D-05 -0.27246577D-04  0.36173577D-04  0.66532079D-05 -0.29160399D-04
  0.38801972D-06  0.69993222D-06  0.10318846D-05  0.65460153D-05  0.21644571D-05
 -0.81456185D-05  0.12896726D-04 -0.55675140D-05  0.98177015D-05 -0.16878944D-05
 -0.30447207D-05 -0.44887208D-05 -0.28436457D-04 -0.94268885D-05  0.35384966D-04
 -0.49691637D-04  0.32753353D-04  0.10083744D-04  0.33401421D-08  0.62289996D-08
  0.10482487D-07  0.16504769D-07  0.21892794D-07  0.14262031D-07  0.14590526D-07
  0.24588439D-07  0.52402329D-08 -0.17035852D-07 -0.44923927D-08 -0.29779804D-08
  0.24321287D-08 -0.18477123D-08  0.16878915D-08  0.49046267D-08  0.14159910D-06
 -0.77160759D-05  0.21113340D-05 -0.15586073D+01 -0.20845261D+01 -0.24077885D+01
  0.84591477D+02  0.11313507D+03  0.13067973D+03 -0.23145784D+02 -0.30955835D+02
 -0.35756378D+02 -0.20040677D+01 -0.94525134D+00 -0.16705321D+00  0.10876829D+03
  0.51302342D+02  0.90666053D+01 -0.29761004D+02 -0.14037265D+02 -0.24807900D+01
 -0.17775875D-02 -0.37134648D-02 -0.23663079D-02  0.96476298D-01  0.20154357D+00
  0.12842835D+00 -0.26397690D-01 -0.55146029D-01 -0.35140358D-01  0.66202025D-03
 -0.35930220D-01  0.98311682D-02 -0.18362405D-03  0.99658887D-02 -0.27268494D-02
  0.18245527D-04 -0.99021083D-03  0.27093949D-03 -0.18468504D-05  0.10020426D-03
 -0.27417609D-04  0.24116748D-03  0.17977341D-03  0.83333263D-04  0.19485332D-04
  0.16839461D-03  0.12552635D-03  0.58187247D-04  0.13605586D-04 -0.40956209D-03
 -0.30529976D-03 -0.14152051D-03 -0.33090918D-04 -0.13083765D-01 -0.97530276D-02
 -0.45209778D-02 -0.10571140D-02  0.35531670D-02  0.26486363D-02  0.12277650D-02
  0.28708115D-03  0.14847448D-02  0.11067729D-02  0.51304026D-03  0.11996122D-03
 -0.14880403D-05  0.10143086D-05  0.47373176D-06  0.79585754D-04 -0.22000738D-04
 -0.74341060D-05 -0.69145472D-07 -0.60879757D-06  0.67794304D-06  0.40647662D-05
 -0.99806330D-06 -0.89721558D-06  0.44681514D-11  0.83438536D-11  0.14203557D-10
  0.22017893D-10  0.29649367D-10  0.22472368D-10 -0.50324505D-10 -0.11722663D-09
 -0.28594335D-10  0.26106727D-09 -0.24513518D-09  0.55359369D-10  0.37627346D-09
 -0.34815958D-08  0.17770558D-07 -0.10029116D-05  0.27450609D-06  0.74936576D-06
  0.95961101D-06  0.10267735D-05  0.81701703D-06  0.18804084D-06 -0.40135132D-04
 -0.51395616D-04 -0.54992759D-04 -0.43758453D-04 -0.10071242D-04  0.10980447D-04
  0.14061168D-04  0.15045299D-04  0.11971740D-04  0.27553600D-05 -0.60070824D-06
  0.12482732D-06  0.32177194D-04 -0.66864287D-05 -0.88032633D-05  0.18293203D-05
 -0.19047584D-06  0.10196267D-04 -0.27895580D-05  0.98637087D-07 -0.52733052D-05
  0.14426945D-05 -0.40925612D-07  0.21699566D-05 -0.59362875D-06 -0.43872278D-07
 -0.58534253D-06  0.62921481D-06  0.26394985D-05 -0.61165901D-06 -0.73176346D-06
MO    6     MO 0.0        OCC NO =    2.0000000  ORB. ENERGY =  -56.159913
 -0.11119128D-09 -0.20699288D-09 -0.34050134D-09 -0.45723616D-09 -0.43050508D-09
 -0.35377468D-10  0.37106159D-09  0.98598012D-09 -0.13291701D-11 -0.61041046D-05
 -0.57119379D-05 -0.44241167D-05 -0.13810782D-04 -0.12923489D-04 -0.10009742D-04
 -0.50062854D-04 -0.46846497D-04 -0.36284423D-04 -0.12478243D-08  0.58827706D-05
  0.13309284D-04  0.48244401D-04  0.21484648D-08  0.12864226D-05  0.29104279D-05
  0.10549663D-04  0.82253758D-08 -0.90537447D-06 -0.20414376D-05 -0.73995975D-05
  0.40592039D-05  0.10720311D-04 -0.14779515D-04  0.34224675D-05  0.31444500D-04
 -0.56991336D-04 -0.11989734D-05 -0.21627770D-05 -0.31885034D-05 -0.20193609D-04
 -0.66971806D-05  0.25130830D-04 -0.34402888D-04 -0.18036764D-04  0.19535336D-04
  0.17243811D-05  0.31105375D-05  0.45857521D-05  0.29058403D-04  0.96262327D-05
 -0.36164416D-04  0.55247375D-04  0.16720773D-04  0.21635460D-04 -0.52617709D-06
 -0.94914841D-06 -0.13992949D-05 -0.88607241D-05 -0.29407111D-05  0.11026203D-04
 -0.16746642D-04  0.10582952D-04 -0.75796380D-05  0.17471777D-08  0.32582953D-08
  0.54832301D-08  0.86333944D-08  0.11451789D-07  0.74602522D-08  0.81304090D-08
  0.13701635D-07  0.29200617D-08 -0.12052400D-07  0.24674075D-08 -0.61467029D-08
  0.40803129D-08 -0.24066068D-08  0.19938778D-08  0.51779489D-08 -0.93467289D-06
 -0.21131868D-05 -0.76601922D-05  0.10240088D+02  0.13695387D+02  0.15819228D+02
  0.23166630D+02  0.30983715D+02  0.35788581D+02  0.83978107D+02  0.11231473D+03
  0.12973218D+03  0.13166773D+02  0.62103239D+01  0.10975436D+01  0.29787808D+02
  0.14049907D+02  0.24830242D+01  0.10797961D+03  0.50930351D+02  0.90008637D+01
  0.11678786D-01  0.24397539D-01  0.15546691D-01  0.26421464D-01  0.55195693D-01
  0.35172005D-01  0.95776752D-01  0.20008219D+00  0.12749712D+00 -0.43494742D-02
 -0.98400241D-02 -0.35669692D-01  0.12064029D-02  0.27293071D-02  0.98936260D-02
 -0.11986728D-03 -0.27118415D-03 -0.98303069D-03  0.12129424D-04  0.27442492D-04
  0.99477804D-04 -0.15831699D-02 -0.11801419D-02 -0.54705018D-03 -0.12791356D-03
  0.44595108D-04  0.33242519D-04  0.15409440D-04  0.36030997D-05  0.15385748D-02
  0.11468994D-02  0.53164074D-03  0.12431046D-03 -0.35568147D-02 -0.26513554D-02
 -0.12290254D-02 -0.28737587D-03 -0.12795545D-01 -0.95381796D-02 -0.44213859D-02
 -0.10338270D-02  0.62987805D-03  0.46952982D-03  0.21764872D-03  0.50891534D-04
  0.95832720D-05  0.52319438D-06 -0.10106466D-04  0.21113678D-04  0.77357826D-04
 -0.78660806D-05  0.50459016D-06 -0.23070472D-06 -0.27388543D-06  0.12473849D-05
  0.41047020D-05  0.90560918D-06  0.53183348D-11  0.99314912D-11  0.16906157D-10
  0.26207377D-10  0.35290939D-10  0.26748327D-10 -0.59838704D-10 -0.13938914D-09
 -0.34000293D-10  0.31182437D-09 -0.29581990D-09  0.78154408D-10  0.42278989D-09
 -0.37149870D-08 -0.12222702D-06 -0.27479385D-06 -0.99608230D-06 -0.48489199D-05
 -0.62093535D-05 -0.66439417D-05 -0.52866709D-05 -0.12167556D-05 -0.10993758D-04
 -0.14078213D-04 -0.15063537D-04 -0.11986253D-04 -0.27587002D-05 -0.39852438D-04
 -0.51033609D-04 -0.54605414D-04 -0.43450238D-04 -0.10000305D-04  0.38875687D-05
 -0.80783774D-06  0.88139140D-05 -0.18315335D-05  0.31950470D-04 -0.66393156D-05
  0.12317437D-05  0.27929718D-05  0.10124566D-04 -0.63688481D-06 -0.14445080D-05
 -0.52363977D-05  0.26172838D-06  0.59447371D-06  0.21550275D-05  0.33106462D-06
 -0.22354992D-06 -0.10751470D-06  0.85877731D-06  0.27105253D-05  0.96512180D-06
MO    7     MO 0.0        OCC NO =    2.0000000  ORB. ENERGY =  -10.082360
  0.43813617D+00  0.81563114D+00  0.13417056D+01  0.18016854D+01  0.16963547D+01
  0.13940076D+00  0.37089148D+00  0.98552812D+00 -0.13285608D-02  0.29521352D-02
  0.27624712D-02  0.21396407D-02 -0.40854516D-04 -0.38229761D-04 -0.29610428D-04
 -0.34858852D-03 -0.32619296D-03 -0.25264906D-03  0.79314736D-02 -0.15507960D-02
  0.21458195D-04  0.18312964D-03 -0.14977244D-02 -0.68847551D-04  0.95488163D-06
  0.81295341D-05 -0.70981848D-03  0.11446732D-03 -0.15824125D-05 -0.13516034D-04
 -0.12853231D-02  0.65604528D-03  0.62927778D-03  0.54014680D-04  0.45869166D-03
 -0.63897496D-05  0.52761344D-04  0.95173937D-04  0.14031147D-03 -0.12671622D-02
  0.73131319D-03  0.85774087D-04 -0.31155430D-03 -0.12027673D-02  0.19873944D-02
  0.52760888D-04  0.95173114D-04  0.14031026D-03 -0.12671833D-02  0.73131912D-03
  0.85773563D-04 -0.77342160D-03 -0.10651906D-02 -0.19392652D-02  0.52762673D-04
  0.95176335D-04  0.14031500D-03 -0.12671300D-02  0.73129996D-03  0.85767204D-04
 -0.48159672D-03  0.22896710D-02  0.13688002D-03  0.15211919D-05  0.28368564D-05
  0.47740107D-05  0.75167221D-05  0.99705757D-05  0.64953181D-05 -0.15397010D-05
 -0.25947553D-05 -0.55298842D-06  0.53767142D-04 -0.11356789D-03  0.13929917D-03
 -0.11227815D-03 -0.55543101D-04  0.22426071D-03 -0.99037762D-04  0.15418269D-04
 -0.21569675D-06 -0.18218903D-05 -0.43239899D-05 -0.57830280D-05 -0.66798435D-05
  0.73543075D-07  0.98358617D-07  0.11361179D-06  0.51749284D-06  0.69210976D-06
  0.79944017D-06  0.71399943D-03  0.33676951D-03  0.59516897D-04 -0.98711756D-05
 -0.46559014D-05 -0.82283223D-06 -0.84304104D-04 -0.39763410D-04 -0.70273428D-05
 -0.12931117D-03 -0.27013719D-03 -0.17213783D-03  0.17897676D-05  0.37389095D-05
  0.23825219D-05  0.15269185D-04  0.31898053D-04  0.20326196D-04  0.53157510D-03
 -0.73570752D-05 -0.62768731D-04 -0.19667797D-03  0.27102127D-05  0.23217889D-04
 -0.13216140D-03  0.18438180D-05  0.15613183D-04 -0.71164679D-04  0.98561249D-06
  0.84034003D-05  0.14263435D-02  0.10632388D-02  0.49286021D-03  0.11524264D-03
 -0.72801541D-03 -0.54268433D-03 -0.25155920D-03 -0.58820625D-04 -0.69832808D-03
 -0.52055452D-03 -0.24130101D-03 -0.56422012D-04 -0.59800636D-04 -0.44577172D-04
 -0.20663574D-04 -0.48316433D-05 -0.50890456D-03 -0.37935259D-03 -0.17584741D-03
 -0.41117377D-04  0.70779550D-05  0.52761181D-05  0.24457239D-05  0.57186940D-06
 -0.22174824D-03  0.11318042D-03  0.10856781D-03  0.93009535D-05  0.79122063D-04
 -0.10999466D-05  0.15140510D-03 -0.77276392D-04 -0.74128712D-04 -0.63529039D-05
 -0.54025764D-04  0.75078042D-06 -0.53333402D-07 -0.99595124D-07 -0.16953857D-06
 -0.26281320D-06 -0.35390511D-06 -0.26823796D-06 -0.33307916D-05 -0.77587943D-05
 -0.18925525D-05  0.23585561D-04 -0.31625947D-04  0.48580954D-04 -0.40804326D-04
  0.16680548D-03  0.26742781D-04 -0.36710586D-06 -0.31556773D-05 -0.52072451D-03
 -0.66682120D-03 -0.71349153D-03 -0.56773449D-03 -0.13066713D-03  0.71750109D-05
  0.91880626D-05  0.98311285D-05  0.78227568D-05  0.18004494D-05  0.61461546D-04
  0.78705460D-04  0.84213998D-04  0.67010174D-04  0.15422750D-04  0.28868993D-03
 -0.59989838D-04 -0.39771290D-05  0.82644839D-06 -0.34073806D-04  0.70805452D-05
  0.17865467D-03 -0.24636620D-05 -0.21088100D-04 -0.97069542D-04  0.13395199D-05
  0.11458566D-04  0.19234050D-04 -0.26365408D-06 -0.22692685D-05 -0.39623239D-04