 Single Point Energy
GAUSSIAN             31 MOL ORBITALS    210 PRIMITIVES        6 NUCLEI   B3LYP
  C    1    (CENTRE  1)  -0.62873721  0.01106410  0.08223978  CHARGE =  6.0
  H    2    (CENTRE  2)  -0.99853518 -1.01850709  1.80546353  CHARGE =  1.0
  H    3    (CENTRE  3)  -1.43571833 -0.89778841 -1.55758543  CHARGE =  1.0
  H    4    (CENTRE  4)  -1.15438239  1.97847055  0.22117805  CHARGE =  1.0
  Br   5    (CENTRE  5)   3.19257530 -0.05401041 -0.41681550  CHARGE = 35.0
  Cl   6    (CENTRE  6)  -6.13994566  0.10363557  0.80153223  CHARGE = 17.0
CENTRE ASSIGNMENTS    1  1  1  1  1  1  1  1  1  1  1  1  1  1  1  1  1  1  1  1
CENTRE ASSIGNMENTS    1  1  1  1  1  1  1  1  1  1  1  1  1  1  1  1  2  2  2  2
CENTRE ASSIGNMENTS    2  2  2  2  2  3  3  3  3  3  3  3  3  3  4  4  4  4  4  4
CENTRE ASSIGNMENTS    4  4  4  5  5  5  5  5  5  5  5  5  5  5  5  5  5  5  5  5
CENTRE ASSIGNMENTS    5  5  5  5  5  5  5  5  5  5  5  5  5  5  5  5  5  5  5  5
CENTRE ASSIGNMENTS    5  5  5  5  5  5  5  5  5  5  5  5  5  5  5  5  5  5  5  5
CENTRE ASSIGNMENTS    5  5  5  5  5  5  5  5  5  5  5  5  5  5  5  5  5  5  5  5
CENTRE ASSIGNMENTS    5  5  5  5  5  5  5  5  5  5  5  5  5  5  5  5  5  6  6  6
CENTRE ASSIGNMENTS    6  6  6  6  6  6  6  6  6  6  6  6  6  6  6  6  6  6  6  6
CENTRE ASSIGNMENTS    6  6  6  6  6  6  6  6  6  6  6  6  6  6  6  6  6  6  6  6
CENTRE ASSIGNMENTS    6  6  6  6  6  6  6  6  6  6
TYPE ASSIGNMENTS      1  1  1  1  1  1  1  1  1  2  2  2  3  3  3  4  4  4  1  2
TYPE ASSIGNMENTS      3  4  1  2  3  4  1  2  3  4  5  6  7  8  9 10  1  1  1  1
TYPE ASSIGNMENTS      1  1  2  3  4  1  1  1  1  1  1  2  3  4  1  1  1  1  1  1
TYPE ASSIGNMENTS      2  3  4  1  1  1  1  1  1  1  1  1  1  1  1  1  1  1  1  2
TYPE ASSIGNMENTS      3  4  2  2  2  3  3  3  4  4  4  2  2  2  3  3  3  4  4  4
TYPE ASSIGNMENTS      2  2  2  3  3  3  4  4  4  2  3  4  2  3  4  2  3  4  2  3
TYPE ASSIGNMENTS      4  5  5  5  5  6  6  6  6  7  7  7  7  8  8  8  8  9  9  9
TYPE ASSIGNMENTS      9 10 10 10 10  5  6  7  8  9 10  5  6  7  8  9 10  1  1  1
TYPE ASSIGNMENTS      1  1  1  1  1  1  1  1  1  1  1  2  3  4  2  2  2  2  2  3
TYPE ASSIGNMENTS      3  3  3  3  4  4  4  4  4  2  2  3  3  4  4  2  3  4  2  3
TYPE ASSIGNMENTS      4  2  3  4  5  6  7  8  9 10
EXPONENTS  0.4563240D+04 0.6820240D+03 0.1549730D+03 0.4445530D+02 0.1302900D+02
EXPONENTS  0.1827730D+01 0.2096420D+02 0.4803310D+01 0.1459330D+01 0.2096420D+02
EXPONENTS  0.4803310D+01 0.1459330D+01 0.2096420D+02 0.4803310D+01 0.1459330D+01
EXPONENTS  0.2096420D+02 0.4803310D+01 0.1459330D+01 0.4834560D+00 0.4834560D+00
EXPONENTS  0.4834560D+00 0.4834560D+00 0.1455850D+00 0.1455850D+00 0.1455850D+00
EXPONENTS  0.1455850D+00 0.4380000D-01 0.4380000D-01 0.4380000D-01 0.4380000D-01
EXPONENTS  0.6260000D+00 0.6260000D+00 0.6260000D+00 0.6260000D+00 0.6260000D+00
EXPONENTS  0.6260000D+00 0.3386500D+02 0.5094790D+01 0.1158790D+01 0.3258400D+00
EXPONENTS  0.1027410D+00 0.3600000D-01 0.7500000D+00 0.7500000D+00 0.7500000D+00
EXPONENTS  0.3386500D+02 0.5094790D+01 0.1158790D+01 0.3258400D+00 0.1027410D+00
EXPONENTS  0.3600000D-01 0.7500000D+00 0.7500000D+00 0.7500000D+00 0.3386500D+02
EXPONENTS  0.5094790D+01 0.1158790D+01 0.3258400D+00 0.1027410D+00 0.3600000D-01
EXPONENTS  0.7500000D+00 0.7500000D+00 0.7500000D+00 0.4397000D+06 0.6603000D+05
EXPONENTS  0.1514000D+05 0.4317000D+04 0.1414000D+04 0.5239000D+03 0.5239000D+03
EXPONENTS  0.2077000D+03 0.8654000D+02 0.3052000D+02 0.1298000D+02 0.4412000D+01
EXPONENTS  0.1862000D+01 0.3932000D+00 0.1400000D+00 0.3500000D-01 0.3500000D-01
EXPONENTS  0.3500000D-01 0.3500000D-01 0.2957000D+04 0.7003000D+03 0.2246000D+03
EXPONENTS  0.2957000D+04 0.7003000D+03 0.2246000D+03 0.2957000D+04 0.7003000D+03
EXPONENTS  0.2246000D+03 0.8259000D+02 0.3319000D+02 0.1420000D+02 0.8259000D+02
EXPONENTS  0.3319000D+02 0.1420000D+02 0.8259000D+02 0.3319000D+02 0.1420000D+02
EXPONENTS  0.1420000D+02 0.7438000D+01 0.3526000D+01 0.1420000D+02 0.7438000D+01
EXPONENTS  0.3526000D+01 0.1420000D+02 0.7438000D+01 0.3526000D+01 0.1595000D+01
EXPONENTS  0.1595000D+01 0.1595000D+01 0.8462000D+00 0.8462000D+00 0.8462000D+00
EXPONENTS  0.3186000D+00 0.3186000D+00 0.3186000D+00 0.1096000D+00 0.1096000D+00
EXPONENTS  0.1096000D+00 0.1348000D+03 0.3639000D+02 0.1216000D+02 0.4341000D+01
EXPONENTS  0.1348000D+03 0.3639000D+02 0.1216000D+02 0.4341000D+01 0.1348000D+03
EXPONENTS  0.3639000D+02 0.1216000D+02 0.4341000D+01 0.1348000D+03 0.3639000D+02
EXPONENTS  0.1216000D+02 0.4341000D+01 0.1348000D+03 0.3639000D+02 0.1216000D+02
EXPONENTS  0.4341000D+01 0.1348000D+03 0.3639000D+02 0.1216000D+02 0.4341000D+01
EXPONENTS  0.1535000D+01 0.1535000D+01 0.1535000D+01 0.1535000D+01 0.1535000D+01
EXPONENTS  0.1535000D+01 0.4510000D+00 0.4510000D+00 0.4510000D+00 0.4510000D+00
EXPONENTS  0.4510000D+00 0.4510000D+00 0.1058190D+06 0.1587200D+05 0.3619650D+04
EXPONENTS  0.1030800D+04 0.3399080D+03 0.1245380D+03 0.1245380D+03 0.4951350D+02
EXPONENTS  0.2080560D+02 0.6583460D+01 0.2564680D+01 0.5597630D+00 0.1832730D+00
EXPONENTS  0.4830000D-01 0.4830000D-01 0.4830000D-01 0.4830000D-01 0.5897760D+03
EXPONENTS  0.1398490D+03 0.4514130D+02 0.1687330D+02 0.2771520D+01 0.5897760D+03
EXPONENTS  0.1398490D+03 0.4514130D+02 0.1687330D+02 0.2771520D+01 0.5897760D+03
EXPONENTS  0.1398490D+03 0.4514130D+02 0.1687330D+02 0.2771520D+01 0.6741100D+01
EXPONENTS  0.2771520D+01 0.6741100D+01 0.2771520D+01 0.6741100D+01 0.2771520D+01
EXPONENTS  0.1023870D+01 0.1023870D+01 0.1023870D+01 0.3813680D+00 0.3813680D+00
EXPONENTS  0.3813680D+00 0.1094370D+00 0.1094370D+00 0.1094370D+00 0.7500000D+00
EXPONENTS  0.7500000D+00 0.7500000D+00 0.7500000D+00 0.7500000D+00 0.7500000D+00
MO    1     MO 0.0        OCC NO =    2.0000000  ORB. ENERGY = -482.685006
  0.21107745D-06  0.39294027D-06  0.64638304D-06  0.86798394D-06  0.81723960D-06
  0.67158019D-07 -0.47459731D-06 -0.12610939D-05  0.17000427D-08  0.43473941D-05
  0.40680897D-05  0.31508927D-05 -0.74179985D-07 -0.69414190D-07 -0.53763973D-07
 -0.56775907D-06 -0.53128260D-06 -0.41149891D-06  0.30142735D-07 -0.81579278D-06
  0.13825505D-07  0.10643591D-06  0.54638278D-05  0.12481955D-05 -0.21569005D-07
 -0.16312651D-06  0.80407539D-05  0.34006596D-05 -0.57654232D-07 -0.44402308D-06
 -0.23927639D-05  0.12266840D-05  0.11660799D-05  0.12360039D-06  0.94582762D-06
 -0.16030912D-07 -0.20641609D-06 -0.37234518D-06 -0.54893493D-06 -0.10911834D-05
 -0.13695988D-05 -0.22972479D-06  0.24532177D-07 -0.67545024D-06  0.10890966D-05
 -0.20639911D-06 -0.37231455D-06 -0.54888979D-06 -0.10914213D-05 -0.13697695D-05
 -0.22988500D-06 -0.26050559D-06 -0.59702649D-06 -0.11043621D-05 -0.20644703D-06
 -0.37240098D-06 -0.54901721D-06 -0.10908959D-05 -0.13691527D-05 -0.22933658D-06
 -0.77692153D-07  0.12777120D-05  0.56091282D-07  0.38584362D+01  0.71955615D+01
  0.12109068D+02  0.19065835D+02  0.25289927D+02  0.16475089D+02  0.96359543D+01
  0.16238831D+02  0.34607831D+01  0.81731908D-01 -0.11321022D-01  0.24951224D-02
 -0.64909885D-03  0.75174360D-04 -0.26545761D-04 -0.59340832D-05  0.64088310D-06
 -0.11005847D-07 -0.83731204D-07 -0.23014739D-02 -0.30780572D-02 -0.35553936D-02
  0.39243615D-04  0.52485536D-04  0.60624844D-04  0.30057420D-03  0.40199656D-03
  0.46433704D-03 -0.25840939D-03 -0.12188302D-03 -0.21540248D-04  0.44106922D-05
  0.20803751D-05  0.36766236D-06  0.33750448D-04  0.15918951D-04  0.28133383D-05
  0.67601915D-05  0.14122361D-04  0.89991037D-05 -0.11575425D-06 -0.24181613D-06
 -0.15409097D-06 -0.88308748D-06 -0.18448117D-05 -0.11755578D-05 -0.16521565D-04
  0.28339686D-06  0.21584293D-05  0.11944758D-04 -0.20491299D-06 -0.15605134D-05
 -0.48735380D-05  0.83515293D-07  0.63666513D-06  0.38076428D-05 -0.65016342D-07
 -0.49733200D-06 -0.33818982D-04 -0.25209675D-04 -0.11685846D-04 -0.27324335D-05
  0.17336979D-04  0.12923499D-04  0.59906376D-05  0.14007559D-05  0.16482004D-04
  0.12286176D-04  0.56952087D-05  0.13316775D-05  0.17583538D-05  0.13107292D-05
  0.60758339D-06  0.14206769D-06  0.13371823D-04  0.99677546D-05  0.46205137D-05
  0.10803878D-05 -0.22909819D-06 -0.17077661D-06 -0.79162828D-07 -0.18510184D-07
  0.57331590D-05 -0.29391847D-05 -0.27939743D-05 -0.29666288D-06 -0.22663058D-05
  0.38700845D-07 -0.17074643D-05  0.87536258D-06  0.83210169D-06  0.88266590D-07
  0.67492389D-06 -0.11517144D-07  0.16121678D-06  0.30105721D-06  0.51248301D-06
  0.79443455D-06  0.10697882D-05  0.81083259D-06 -0.58696257D-06 -0.13672791D-05
 -0.33351156D-06  0.21877306D-05 -0.20930426D-05  0.16198614D-05 -0.20044836D-05
  0.49786123D-05  0.80378631D-06 -0.13366986D-07 -0.10485771D-06 -0.12094735D-04
 -0.15488085D-04 -0.16572085D-04 -0.13186624D-04 -0.30349721D-05  0.20250312D-06
  0.25931826D-06  0.27746775D-06  0.22078470D-06  0.50814781D-07  0.15783181D-05
  0.20211377D-05  0.21625957D-05  0.17208055D-05  0.39605261D-06  0.10643229D-04
 -0.22116656D-05 -0.17817392D-06  0.37024585D-07 -0.13888920D-05  0.28861209D-06
  0.27967283D-05 -0.46856690D-07 -0.36497425D-06 -0.14592843D-05  0.24491532D-07
  0.19045290D-06  0.79454805D-06 -0.13422693D-07 -0.10372872D-06  0.64454270D-06
 -0.33048188D-06 -0.31406082D-06 -0.32467104D-07 -0.25445251D-06  0.42583189D-08
MO    2     MO 0.0        OCC NO =    2.0000000  ORB. ENERGY = -101.258821
  0.48810978D-06  0.90866166D-06  0.14947399D-05  0.20071848D-05  0.18898401D-05
  0.15530075D-06 -0.12118524D-05 -0.32201187D-05  0.43409449D-08 -0.15795268D-04
 -0.14780479D-04 -0.11448052D-04  0.26457758D-06  0.24757943D-06  0.19175983D-06
  0.20612609D-05  0.19288324D-05  0.14939552D-05 -0.11354533D-05  0.12766624D-04
 -0.20845838D-06 -0.16639597D-05  0.19282646D-04 -0.19203361D-04  0.32690644D-06
  0.25079373D-05 -0.25948468D-05  0.53500577D-05 -0.90002524D-07 -0.69832402D-06
 -0.56797548D-05  0.29146045D-05  0.27651503D-05  0.28964222D-06  0.22429129D-05
 -0.39253368D-07  0.31189710D-05  0.56261788D-05  0.82944705D-05 -0.26763267D-04
  0.23893130D-05 -0.68352194D-05  0.12216181D-04 -0.79317613D-05  0.10892864D-04
  0.31185693D-05  0.56254540D-05  0.82934020D-05 -0.26762114D-04  0.23922883D-05
 -0.68385436D-05  0.89542412D-05 -0.70281394D-05 -0.14175373D-04  0.31197893D-05
  0.56276547D-05  0.82966464D-05 -0.26765679D-04  0.23829987D-05 -0.68282367D-05
  0.11061021D-04  0.14429308D-04 -0.92002625D-06  0.81715448D-07  0.15239037D-06
  0.25645051D-06  0.40378360D-06  0.53559980D-06  0.34891577D-06 -0.28311627D-05
 -0.47711695D-05 -0.10168209D-05  0.17228335D-04 -0.24307516D-04  0.23072571D-04
 -0.15920521D-04  0.84840130D-05 -0.42439646D-05  0.36279650D-05 -0.96870564D-06
  0.15943678D-07  0.12631158D-06  0.45224326D-05  0.60484310D-05  0.69864044D-05
 -0.76192888D-07 -0.10190255D-06 -0.11770531D-06 -0.59022369D-06 -0.78938208D-06
 -0.91179721D-06 -0.13583672D-04 -0.64069612D-05 -0.11322951D-05  0.22869883D-06
  0.10786954D-06  0.19063663D-07  0.17727307D-05  0.83613745D-06  0.14776963D-06
  0.16841632D-05  0.35182970D-05  0.22419423D-05 -0.28361769D-07 -0.59249084D-07
 -0.37754922D-07 -0.21979363D-06 -0.45915935D-06 -0.29258723D-06 -0.64002427D-05
  0.10788075D-06  0.83530951D-06  0.53249374D-05 -0.89889258D-07 -0.69502364D-06
 -0.32619350D-05  0.55307791D-07  0.42586720D-06 -0.28204902D-05  0.48013286D-07
  0.36835833D-06  0.17183934D-03  0.12809415D-03  0.59377543D-04  0.13883906D-04
 -0.88094704D-04 -0.65668412D-04 -0.30440336D-04 -0.71176867D-05 -0.83744632D-04
 -0.62425738D-04 -0.28937207D-04 -0.67662189D-05 -0.88640368D-05 -0.66075166D-05
 -0.30628885D-05 -0.71617740D-06 -0.67919488D-04 -0.50629206D-04 -0.23468971D-04
 -0.54876129D-05  0.11546566D-05  0.86071537D-06  0.39898125D-06  0.93291465D-07
 -0.13869380D-04  0.71102460D-05  0.67591338D-05  0.71543982D-06  0.54818685D-05
 -0.93200652D-07  0.43043399D-05 -0.22066723D-05 -0.20976676D-05 -0.22203445D-06
 -0.17012747D-05  0.28938198D-07  0.12702096D+01  0.23719972D+01  0.40377982D+01
  0.62592639D+01  0.84287452D+01  0.63884623D+01  0.23318240D+01  0.54317846D+01
  0.13249401D+01  0.43860257D-01 -0.56528088D-02  0.63980088D-03 -0.17027378D-03
  0.38944260D-04  0.80538904D-05 -0.13584096D-06 -0.10513571D-05  0.13776035D-03
  0.17641098D-03  0.18875786D-03  0.15019708D-03  0.34568663D-04 -0.22942523D-05
 -0.29379375D-05 -0.31435617D-05 -0.25013729D-05 -0.57570437D-06 -0.17972040D-04
 -0.23014352D-04 -0.24625110D-04 -0.19594520D-04 -0.45097837D-05 -0.67354601D-04
  0.13996303D-04  0.11240052D-05 -0.23356855D-06  0.87869857D-05 -0.18259378D-05
 -0.24288836D-04  0.40613045D-06  0.31692567D-05  0.15057898D-04 -0.25253133D-06
 -0.19650990D-05 -0.11828063D-04  0.19894142D-06  0.15438283D-05 -0.60676006D-05
  0.31106276D-05  0.29569730D-05  0.30770440D-06  0.23962127D-05 -0.40118653D-07
MO    3     MO 0.0        OCC NO =    2.0000000  ORB. ENERGY =  -62.338051
  0.22726562D-05  0.42307604D-05  0.69595612D-05  0.93455226D-05  0.87991618D-05
  0.72308570D-06 -0.57140229D-05 -0.15183229D-04  0.20468053D-07  0.61343284D-04
  0.57402200D-04  0.44460223D-04 -0.10466063D-05 -0.97936565D-06 -0.75855655D-06
 -0.80112672D-05 -0.74965723D-05 -0.58063850D-05  0.66503380D-06 -0.12568270D-04
  0.21307356D-06  0.16399289D-05  0.76275720D-04  0.17303757D-04 -0.29908255D-06
 -0.22614481D-05  0.11433071D-03  0.48143109D-04 -0.81621238D-06 -0.62860306D-05
 -0.34899301D-04  0.17891594D-04  0.17007707D-04  0.18025128D-05  0.13795120D-04
 -0.23383765D-06 -0.29110627D-05 -0.52511417D-05 -0.77415670D-05 -0.15283628D-04
 -0.19507252D-04 -0.33622224D-05  0.38936419D-06 -0.95597915D-05  0.15407280D-04
 -0.29108277D-05 -0.52507179D-05 -0.77409423D-05 -0.15286952D-04 -0.19509656D-04
 -0.33645086D-05 -0.36445162D-05 -0.84498590D-05 -0.15634280D-04 -0.29114886D-05
 -0.52519100D-05 -0.77426996D-05 -0.15279582D-04 -0.19500974D-04 -0.33566620D-05
 -0.10571232D-05  0.18081524D-04  0.78822398D-06 -0.12742126D+01 -0.23762672D+01
 -0.39989070D+01 -0.62963145D+01 -0.83517628D+01 -0.54407446D+01 -0.53840043D+01
 -0.90733029D+01 -0.19336819D+01  0.58200020D+01  0.24290300D+01  0.10326747D+00
 -0.11047370D-01  0.10854725D-02 -0.37825060D-03 -0.83860973D-04  0.91303242D-05
 -0.15679286D-06 -0.11928726D-05 -0.55240776D-01 -0.73880597D-01 -0.85337790D-01
  0.94188199D-03  0.12597000D-02  0.14550507D-02  0.72145041D-02  0.96488846D-02
  0.11145206D-01 -0.76712678D-01 -0.36182790D-01 -0.63945438D-02  0.13080380D-02
  0.61695750D-03  0.10903421D-03  0.10018790D-01  0.47255262D-02  0.83513694D-03
 -0.14821131D-03 -0.30962046D-03 -0.19729750D-03  0.25214415D-05  0.52674112D-05
  0.33565194D-05  0.19353183D-04  0.40429719D-04  0.25762776D-04 -0.63710704D-04
  0.11076448D-05  0.83310055D-05  0.11274004D-03 -0.19385703D-05 -0.14731399D-04
 -0.62847245D-04  0.10772724D-05  0.82104153D-05  0.52907003D-04 -0.90340004D-06
 -0.69104179D-05  0.61565630D-02  0.45892851D-02  0.21273452D-02  0.49742475D-03
 -0.31563915D-02 -0.23528681D-02 -0.10906628D-02 -0.25502334D-03 -0.30001715D-02
 -0.22364170D-02 -0.10366824D-02 -0.24240141D-03 -0.31719881D-03 -0.23644942D-03
 -0.10960520D-03 -0.25628348D-04 -0.24330517D-02 -0.18136691D-02 -0.84071921D-03
 -0.19658048D-03  0.41400412D-04  0.30861098D-04  0.14305541D-04  0.33449816D-05
  0.25235227D-04 -0.12936149D-04 -0.12299079D-04 -0.13157580D-05 -0.99803093D-05
  0.17167719D-06 -0.20443609D-04  0.10480735D-04  0.99628737D-05  0.10572906D-05
  0.80811418D-05 -0.13796212D-06  0.48883254D-06  0.91284891D-06  0.15539225D-05
  0.24088402D-05  0.32437521D-05  0.24585614D-05 -0.49880387D-05 -0.11619210D-04
 -0.28341988D-05  0.26479137D-04 -0.27421926D-04  0.22635262D-04 -0.28423630D-04
  0.70553351D-04  0.11417911D-04 -0.18988854D-06 -0.14895231D-05 -0.13921378D-03
 -0.17827219D-03 -0.19074934D-03 -0.15178173D-03 -0.34933377D-04  0.23312297D-05
  0.29852895D-05  0.31942277D-05  0.25416885D-05  0.58498323D-06  0.18167034D-04
  0.23264055D-04  0.24892289D-04  0.19807118D-04  0.45587143D-05  0.11236952D-03
 -0.23350414D-04 -0.18813885D-05  0.39095299D-06 -0.14663811D-04  0.30471435D-05
  0.35821019D-04 -0.60025796D-06 -0.46747024D-05 -0.19974251D-04  0.33528642D-06
  0.26068841D-05  0.11123067D-04 -0.18793357D-06 -0.14521331D-05  0.89403118D-05
 -0.45840433D-05 -0.43562685D-05 -0.45037263D-06 -0.35294664D-05  0.59069930D-07
MO    4     MO 0.0        OCC NO =    2.0000000  ORB. ENERGY =  -56.157859
 -0.71162053D-05 -0.13247477D-04 -0.21791975D-04 -0.29262965D-04 -0.27552184D-04
 -0.22641464D-05  0.21194926D-04  0.56318886D-04 -0.75921793D-07  0.12565561D-03
  0.11758269D-03  0.91072342D-04 -0.21406815D-05 -0.20031505D-05 -0.15515175D-05
 -0.16410448D-04 -0.15356136D-04 -0.11893921D-04  0.33990230D-04 -0.10537442D-03
  0.17959247D-05  0.13762137D-04 -0.92946194D-04 -0.32461158D-04  0.55176543D-06
  0.42387553D-05  0.34971942D-04  0.30288547D-04 -0.51464804D-06 -0.39552081D-05
 -0.97515016D-04  0.49993498D-04  0.47521518D-04  0.50248664D-05  0.38539753D-04
 -0.65554007D-06 -0.76003829D-05 -0.13710006D-04 -0.20212163D-04  0.40342665D-04
  0.11377538D-04  0.12412234D-04  0.63113725D-04 -0.11486862D-05 -0.81220349D-05
 -0.76007838D-05 -0.13710730D-04 -0.20213229D-04  0.40342149D-04  0.11377050D-04
  0.12412337D-04  0.63082838D-04 -0.11405869D-05 -0.83643313D-05 -0.75998833D-05
 -0.13709105D-04 -0.20210835D-04  0.40342042D-04  0.11378696D-04  0.12411872D-04
  0.63101572D-04 -0.93477140D-06 -0.82355678D-05 -0.88026679D-03 -0.16416013D-02
 -0.27625727D-02 -0.43496952D-02 -0.57696645D-02 -0.37586402D-02 -0.37651744D-02
 -0.63451971D-02 -0.13522741D-02  0.42291552D-02  0.15690772D-02  0.14822440D-03
 -0.67636640D-04 -0.62576840D-05  0.27415060D-04 -0.82887447D-04  0.35650719D-05
 -0.60948377D-07 -0.46570021D-06  0.86958903D+02  0.11630133D+03  0.13433701D+03
 -0.14812270D+01 -0.19810354D+01 -0.22882488D+01 -0.11356589D+02 -0.15188628D+02
 -0.17544037D+02  0.11181533D+03  0.52739529D+02  0.93205978D+01 -0.19046225D+01
 -0.89834635D+00 -0.15876374D+00 -0.14602769D+02 -0.68876347D+01 -0.12172439D+01
  0.99503676D-01  0.20786791D+00  0.13245836D+00 -0.16949119D-02 -0.35407515D-02
 -0.22562509D-02 -0.12994901D-01 -0.27146965D-01 -0.17298690D-01 -0.37656080D-01
  0.64142463D-03  0.49177801D-02  0.10754384D-01 -0.18318948D-03 -0.14044943D-02
 -0.11719520D-02  0.19963870D-04  0.15305449D-03  0.10991787D-03 -0.18729953D-05
 -0.14355238D-04 -0.48855186D-02 -0.36418108D-02 -0.16881472D-02 -0.39472963D-03
  0.25047353D-02  0.18671042D-02  0.86548884D-03  0.20237222D-03  0.23807833D-02
  0.17747066D-02  0.82265832D-03  0.19235741D-03  0.25223119D-03  0.18802063D-03
  0.87156226D-04  0.20379234D-04  0.19307767D-02  0.14392584D-02  0.66716260D-03
  0.15599875D-03 -0.32888402D-04 -0.24515992D-04 -0.11364292D-04 -0.26572464D-05
 -0.17612827D-03  0.90298675D-04  0.85829599D-04  0.90692502D-05  0.69609250D-04
 -0.11852410D-05  0.65595141D-04 -0.33629727D-04 -0.31965414D-04 -0.33793359D-05
 -0.25924318D-04  0.44145082D-06  0.84765691D-07  0.15829197D-06  0.26945692D-06
  0.41770338D-06  0.56248073D-06  0.42632525D-06 -0.94445505D-06 -0.22000273D-05
 -0.53663844D-06  0.50243267D-05 -0.50021291D-05  0.25994259D-05  0.15211239D-05
  0.21701111D-04  0.38905945D-05 -0.64028221D-07 -0.50730233D-06  0.24665492D-04
  0.31585748D-04  0.33796411D-04  0.26892244D-04  0.61893940D-05 -0.42473817D-06
 -0.54390452D-06 -0.58197201D-06 -0.46308269D-06 -0.10658096D-06 -0.32231762D-05
 -0.41274843D-05 -0.44163639D-05 -0.35141582D-05 -0.80880234D-06 -0.18475143D-04
  0.38391392D-05  0.31859388D-06 -0.66203885D-07  0.24144172D-05 -0.50171649D-06
 -0.79795525D-05  0.13683536D-06  0.10425197D-05  0.63890879D-05 -0.10899777D-06
 -0.83451791D-06 -0.19979153D-05  0.34170847D-07  0.26099975D-06 -0.60984103D-05
  0.31268855D-05  0.29715248D-05  0.31499910D-06  0.24104932D-05 -0.41305260D-07
MO    5     MO 0.0        OCC NO =    2.0000000  ORB. ENERGY =  -56.154734
 -0.30872053D-09 -0.57471193D-09 -0.94539572D-09 -0.12695078D-08 -0.11952894D-08
 -0.98224890D-10  0.10223280D-08  0.27165169D-08 -0.36620545D-11  0.92260282D-07
  0.86332892D-07  0.66868162D-07 -0.51678541D-04 -0.48358382D-04 -0.37455436D-04
  0.74279828D-05  0.69507618D-05  0.53836337D-05 -0.29680509D-08 -0.87965738D-07
  0.49865306D-04 -0.71674340D-05  0.51325305D-08 -0.19901006D-07  0.11087459D-04
 -0.15936844D-05  0.24012932D-07  0.32119238D-08 -0.76036773D-05  0.10942876D-05
 -0.51109044D-06  0.28458461D-04 -0.27947370D-04  0.39261275D-04 -0.12451585D-04
  0.98479180D-05  0.11995246D-05  0.21637712D-05  0.31899691D-05  0.19266062D-04
  0.65338585D-05 -0.23875878D-04  0.30970205D-04  0.42593952D-05 -0.27235037D-04
  0.63078691D-06  0.11378496D-05  0.16774902D-05  0.10139172D-04  0.34327365D-05
 -0.12566388D-04  0.19697661D-04 -0.36655837D-05  0.12479603D-04 -0.18321412D-05
 -0.33049214D-05 -0.48723252D-05 -0.29395022D-04 -0.99985191D-05  0.36419783D-04
 -0.50723784D-04  0.34454950D-04  0.97166478D-05  0.14032934D-07  0.26169887D-07
  0.44040058D-07  0.69341462D-07  0.91978163D-07  0.59919050D-07  0.61595274D-07
  0.10380240D-06  0.22122135D-07 -0.76248122D-07 -0.11968102D-07 -0.16991608D-07
  0.12452516D-07 -0.86000685D-08  0.80360295D-08  0.17351317D-07  0.11805977D-07
 -0.79340239D-05  0.11407326D-05 -0.15095531D+00 -0.20189196D+00 -0.23320079D+00
  0.86822165D+02  0.11611845D+03  0.13412577D+03 -0.12480001D+02 -0.16691111D+02
 -0.19279521D+02 -0.19409945D+00 -0.91550182D-01 -0.16179561D-01  0.11163659D+03
  0.52655225D+02  0.93056989D+01 -0.16046879D+02 -0.75687731D+01 -0.13376208D+01
 -0.17216953D-03 -0.35967033D-03 -0.22919047D-03  0.99022443D-01  0.20686259D+00
  0.13181775D+00 -0.14233695D-01 -0.29734865D-01 -0.18947762D-01  0.64125167D-04
 -0.36878938D-01  0.53010555D-02 -0.17788614D-04  0.10228939D-01 -0.14703283D-02
  0.17694265D-05 -0.10163013D-02  0.14608485D-03 -0.18105728D-06  0.10283375D-03
 -0.14781232D-04  0.22744940D-04  0.16954754D-04  0.78593102D-05  0.18376968D-05
  0.20863064D-03  0.15551948D-03  0.72090448D-04  0.16856490D-04 -0.23137558D-03
 -0.17247424D-03 -0.79949758D-04 -0.18694187D-04 -0.12966897D-01 -0.96659106D-02
 -0.44805951D-02 -0.10476715D-02  0.18638038D-02  0.13893347D-02  0.64402069D-03
  0.15058761D-03  0.16553748D-02  0.12339656D-02  0.57199993D-03  0.13374742D-03
 -0.17015645D-06  0.75408576D-06 -0.58392931D-06  0.78182043D-04 -0.11707192D-04
 -0.89531170D-05  0.16985680D-08 -0.61868614D-06  0.61698757D-06  0.42147260D-05
 -0.47723292D-06 -0.81938544D-06  0.16021747D-10  0.29919110D-10  0.50930638D-10
  0.78951023D-10  0.10631571D-09  0.80580662D-10 -0.18005439D-09 -0.41942132D-09
 -0.10230673D-09  0.94477229D-09 -0.90814254D-09  0.23942511D-09  0.14367385D-08
 -0.13747112D-07 -0.81690424D-09 -0.10618717D-05  0.15302027D-06  0.10677842D-06
  0.13673663D-06  0.14630673D-06  0.11641817D-06  0.26794265D-07 -0.43469185D-04
 -0.55665086D-04 -0.59561045D-04 -0.47393498D-04 -0.10907867D-04  0.62446947D-05
  0.79967329D-05  0.85564185D-05  0.68084535D-05  0.15670020D-05 -0.85180717D-07
  0.17700574D-07  0.34800102D-04 -0.72314696D-05 -0.49993492D-05  0.10388660D-05
 -0.27740018D-07  0.11110194D-04 -0.15960121D-05  0.15204431D-07 -0.58331825D-05
  0.83787559D-06 -0.77466958D-08  0.24815537D-05 -0.35629163D-06 -0.43929917D-09
 -0.60332622D-06  0.60376552D-06  0.32980648D-05 -0.34366880D-06 -0.70295603D-06
MO    6     MO 0.0        OCC NO =    2.0000000  ORB. ENERGY =  -56.154734
 -0.16448702D-09 -0.30620785D-09 -0.50370903D-09 -0.67639669D-09 -0.63685298D-09
 -0.52334449D-10  0.55001915D-09  0.14615039D-08 -0.19702093D-11 -0.68157606D-05
 -0.63778726D-05 -0.49399089D-05 -0.73761966D-05 -0.69023026D-05 -0.53461002D-05
 -0.51232461D-04 -0.47940961D-04 -0.37132127D-04 -0.19370985D-08  0.65772205D-05
  0.71174849D-05  0.49435078D-04  0.35484180D-08  0.14623296D-05  0.15825689D-05
  0.10992325D-04  0.13449799D-07 -0.10084608D-05 -0.10853219D-05 -0.75381854D-05
  0.45502025D-05  0.72905797D-05 -0.11840782D-04 -0.21750709D-05  0.32589245D-04
 -0.58997921D-04 -0.14224390D-05 -0.25658770D-05 -0.37827791D-05 -0.22821623D-04
 -0.77625777D-05  0.28283114D-04 -0.38056912D-04 -0.18974311D-04  0.23659077D-04
  0.17499600D-05  0.31566781D-05  0.46537756D-05  0.28094282D-04  0.95410346D-05
 -0.34821674D-04  0.53160999D-04  0.17417455D-04  0.20014355D-04 -0.32859455D-06
 -0.59273769D-06 -0.87385159D-06 -0.52676091D-05 -0.17965984D-05  0.65263989D-05
 -0.10478602D-04  0.65591599D-05 -0.89279554D-05  0.53191815D-08  0.99196916D-08
  0.16693377D-07  0.26283870D-07  0.34864308D-07  0.22712307D-07  0.23937894D-07
  0.40340935D-07  0.85973693D-08 -0.32941280D-07  0.16600091D-08 -0.12070069D-07
  0.80266592D-08 -0.47947331D-08  0.41451502D-08  0.91272080D-08 -0.10476473D-05
 -0.11325012D-05 -0.78661314D-05  0.11452413D+02  0.15316785D+02  0.17692069D+02
  0.12392697D+02  0.16574348D+02  0.19144651D+02  0.86076274D+02  0.11512088D+03
  0.13297349D+03  0.14725599D+02  0.69455695D+01  0.12274827D+01  0.15934623D+02
  0.75158256D+01  0.13282634D+01  0.11067752D+03  0.52202863D+02  0.92257534D+01
  0.13061710D-01  0.27286533D-01  0.17387626D-01  0.14134122D-01  0.29526854D-01
  0.18815212D-01  0.98171740D-01  0.20508543D+00  0.13068530D+00 -0.48645715D-02
 -0.52639733D-02 -0.36562113D-01  0.13492614D-02  0.14600442D-02  0.10141064D-01
 -0.13405514D-03 -0.14506358D-03 -0.10075711D-02  0.13563305D-04  0.14678218D-04
  0.10195084D-03 -0.17101692D-02 -0.12748110D-02 -0.59093364D-03 -0.13817458D-03
  0.28411466D-04  0.21178752D-04  0.98173276D-05  0.22955286D-05  0.16817577D-02
  0.12536322D-02  0.58111632D-03  0.13587905D-03 -0.18183253D-02 -0.13554337D-02
 -0.62830600D-03 -0.14691314D-03 -0.12629396D-01 -0.94143274D-02 -0.43639747D-02
 -0.10204028D-02  0.48531057D-03  0.36176493D-03  0.16769472D-03  0.39211081D-04
  0.10267085D-04  0.33934648D-06 -0.10606431D-04  0.10431915D-04  0.75755915D-04
 -0.69055745D-05  0.56794127D-06 -0.14901301D-06 -0.41892825D-06  0.73650454D-06
  0.42120440D-05  0.93169345D-06  0.10464362D-10  0.19541214D-10  0.33264576D-10
  0.51565667D-10  0.69438496D-10  0.52630041D-10 -0.11733230D-09 -0.27331556D-09
 -0.66668098D-10  0.62001309D-09 -0.60651063D-09  0.23024561D-09  0.65044195D-09
 -0.73108964D-08 -0.14171317D-06 -0.15174942D-06 -0.10542005D-05 -0.57210313D-05
 -0.73261483D-05 -0.78389001D-05 -0.62375148D-05 -0.14355974D-05 -0.62075551D-05
 -0.79491732D-05 -0.85055301D-05 -0.67679610D-05 -0.15576825D-05 -0.43119590D-04
 -0.55217406D-04 -0.59082033D-04 -0.47012342D-04 -0.10820142D-04  0.45802298D-05
 -0.95177288D-06  0.49695587D-05 -0.10326755D-05  0.34520068D-04 -0.71732785D-05
  0.14620110D-05  0.15866088D-05  0.11021101D-04 -0.76730344D-06 -0.83307397D-06
 -0.57868545D-05  0.32581091D-06  0.35450022D-06  0.24625906D-05  0.44530978D-06
 -0.14646062D-06 -0.29884917D-06  0.60843446D-06  0.33202778D-05  0.96894274D-06
MO    7     MO 0.0        OCC NO =    2.0000000  ORB. ENERGY =  -10.078189
  0.43813234D+00  0.81562401D+00  0.13416938D+01  0.18016696D+01  0.16963399D+01
  0.13939954D+00  0.37089389D+00  0.98553453D+00 -0.13285694D-02  0.28720141D-02
  0.26874975D-02  0.20815707D-02 -0.48487109D-04 -0.45371988D-04 -0.35142358D-04
 -0.37494399D-03 -0.35085519D-03 -0.27175091D-03  0.79402139D-02 -0.15147436D-02
  0.25654186D-04  0.19778045D-03 -0.14942991D-02 -0.68740683D-04  0.11654042D-05
  0.89742309D-05 -0.72717025D-03  0.11889805D-03 -0.20124850D-05 -0.15523495D-04
 -0.13006017D-02  0.66679654D-03  0.63380515D-03  0.67152680D-04  0.51409537D-03
 -0.87720284D-05  0.52585377D-04  0.94856518D-04  0.13984351D-03 -0.12714399D-02
  0.73332419D-03  0.88351826D-04 -0.28060638D-03 -0.12072117D-02  0.19964394D-02
  0.52583832D-04  0.94853731D-04  0.13983940D-03 -0.12714771D-02  0.73333308D-03
  0.88348601D-04 -0.79214754D-03 -0.10659987D-02 -0.19386132D-02  0.52590401D-04
  0.94865581D-04  0.13985687D-03 -0.12713622D-02  0.73330354D-03  0.88360686D-04
 -0.46295796D-03  0.22992833D-02  0.14271648D-03  0.14747848D-05  0.27503122D-05
  0.46283696D-05  0.72874090D-05  0.96664027D-05  0.62971650D-05 -0.16471536D-05
 -0.27758379D-05 -0.59158034D-06  0.53292117D-04 -0.11196849D-03  0.13716344D-03
 -0.11021060D-03 -0.55552438D-04  0.21995855D-03 -0.10500481D-03  0.16051839D-04
 -0.27708895D-06 -0.20977257D-05 -0.12064431D-04 -0.16135317D-04 -0.18637535D-04
  0.23519424D-06  0.31455552D-06  0.36333590D-06  0.15865954D-05  0.21219581D-05
  0.24510253D-05  0.68042342D-03  0.32093284D-03  0.56718100D-04 -0.11485351D-04
 -0.54172539D-05 -0.95738519D-06 -0.88823674D-04 -0.41895139D-04 -0.74040808D-05
 -0.12440363D-03 -0.25988509D-03 -0.16560494D-03  0.21045267D-05  0.43964563D-05
  0.28015262D-05  0.16241587D-04  0.33929447D-04  0.21620649D-04  0.51114766D-03
 -0.86465247D-05 -0.66733052D-04 -0.18395379D-03  0.30855134D-05  0.24006488D-04
 -0.13165168D-03  0.22593868D-05  0.17199876D-04 -0.70135121D-04  0.11881566D-05
  0.91569590D-05  0.14945580D-02  0.11140880D-02  0.51643113D-03  0.12075409D-03
 -0.76626029D-03 -0.57119320D-03 -0.26477438D-03 -0.61910653D-04 -0.72829772D-03
 -0.54289478D-03 -0.25165675D-03 -0.58843435D-04 -0.76792323D-04 -0.57243281D-04
 -0.26534899D-04 -0.62045012D-05 -0.59055107D-03 -0.44021433D-03 -0.20405963D-03
 -0.47714077D-04  0.10040629D-04  0.74845837D-05  0.34694495D-05  0.81124121D-06
 -0.22653827D-03  0.11614491D-03  0.11039336D-03  0.11653603D-04  0.89520509D-04
 -0.15230924D-05  0.15071299D-03 -0.77268896D-04 -0.73444091D-04 -0.77613761D-05
 -0.59561544D-04  0.10140613D-05  0.45373418D-07  0.84730601D-07  0.14423502D-06
  0.22358846D-06  0.30108494D-06  0.22820358D-06  0.21912483D-06  0.51043257D-06
  0.12450652D-06  0.67968999D-06 -0.51845453D-05  0.30261874D-04 -0.34654557D-04
  0.18321933D-03  0.27500077D-04 -0.45573154D-06 -0.35867828D-05 -0.46085447D-03
 -0.59015377D-03 -0.63145821D-03 -0.50245951D-03 -0.11564375D-03  0.76375460D-05
  0.97803686D-05  0.10464890D-04  0.83270487D-05  0.19165149D-05  0.60108839D-04
  0.76973232D-04  0.82360533D-04  0.65535347D-04  0.15083311D-04  0.24488357D-03
 -0.50886865D-04 -0.40511609D-05  0.84183222D-06 -0.31937207D-04  0.66365594D-05
  0.16835940D-03 -0.28017762D-05 -0.21963363D-04 -0.10396300D-03  0.17381109D-05
  0.13565539D-04  0.21634704D-04 -0.35586354D-06 -0.28207727D-05 -0.34373132D-04