 Single Point Energy
GAUSSIAN             31 MOL ORBITALS    210 PRIMITIVES        6 NUCLEI   B3LYP
  C    1    (CENTRE  1)   2.46885035  0.00151911  0.05755297  CHARGE =  6.0
  H    2    (CENTRE  2)   1.88976030 -1.02965741 -1.61022817  CHARGE =  1.0
  H    3    (CENTRE  3)   1.81095917 -0.91556096  1.76234275  CHARGE =  1.0
  H    4    (CENTRE  4)   1.85134428  1.94893294 -0.02275722  CHARGE =  1.0
  Br   5    (CENTRE  5)  -3.48584626 -0.00191471 -0.08131337  CHARGE = 35.0
  Cl   6    (CENTRE  6)   5.97879136  0.00318740  0.13948781  CHARGE = 17.0
CENTRE ASSIGNMENTS    1  1  1  1  1  1  1  1  1  1  1  1  1  1  1  1  1  1  1  1
CENTRE ASSIGNMENTS    1  1  1  1  1  1  1  1  1  1  1  1  1  1  1  1  2  2  2  2
CENTRE ASSIGNMENTS    2  2  2  2  2  3  3  3  3  3  3  3  3  3  4  4  4  4  4  4
CENTRE ASSIGNMENTS    4  4  4  5  5  5  5  5  5  5  5  5  5  5  5  5  5  5  5  5
CENTRE ASSIGNMENTS    5  5  5  5  5  5  5  5  5  5  5  5  5  5  5  5  5  5  5  5
CENTRE ASSIGNMENTS    5  5  5  5  5  5  5  5  5  5  5  5  5  5  5  5  5  5  5  5
CENTRE ASSIGNMENTS    5  5  5  5  5  5  5  5  5  5  5  5  5  5  5  5  5  5  5  5
CENTRE ASSIGNMENTS    5  5  5  5  5  5  5  5  5  5  5  5  5  5  5  5  5  6  6  6
CENTRE ASSIGNMENTS    6  6  6  6  6  6  6  6  6  6  6  6  6  6  6  6  6  6  6  6
CENTRE ASSIGNMENTS    6  6  6  6  6  6  6  6  6  6  6  6  6  6  6  6  6  6  6  6
CENTRE ASSIGNMENTS    6  6  6  6  6  6  6  6  6  6
TYPE ASSIGNMENTS      1  1  1  1  1  1  1  1  1  2  2  2  3  3  3  4  4  4  1  2
TYPE ASSIGNMENTS      3  4  1  2  3  4  1  2  3  4  5  6  7  8  9 10  1  1  1  1
TYPE ASSIGNMENTS      1  1  2  3  4  1  1  1  1  1  1  2  3  4  1  1  1  1  1  1
TYPE ASSIGNMENTS      2  3  4  1  1  1  1  1  1  1  1  1  1  1  1  1  1  1  1  2
TYPE ASSIGNMENTS      3  4  2  2  2  3  3  3  4  4  4  2  2  2  3  3  3  4  4  4
TYPE ASSIGNMENTS      2  2  2  3  3  3  4  4  4  2  3  4  2  3  4  2  3  4  2  3
TYPE ASSIGNMENTS      4  5  5  5  5  6  6  6  6  7  7  7  7  8  8  8  8  9  9  9
TYPE ASSIGNMENTS      9 10 10 10 10  5  6  7  8  9 10  5  6  7  8  9 10  1  1  1
TYPE ASSIGNMENTS      1  1  1  1  1  1  1  1  1  1  1  2  3  4  2  2  2  2  2  3
TYPE ASSIGNMENTS      3  3  3  3  4  4  4  4  4  2  2  3  3  4  4  2  3  4  2  3
TYPE ASSIGNMENTS      4  2  3  4  5  6  7  8  9 10
EXPONENTS  0.4563240D+04 0.6820240D+03 0.1549730D+03 0.4445530D+02 0.1302900D+02
EXPONENTS  0.1827730D+01 0.2096420D+02 0.4803310D+01 0.1459330D+01 0.2096420D+02
EXPONENTS  0.4803310D+01 0.1459330D+01 0.2096420D+02 0.4803310D+01 0.1459330D+01
EXPONENTS  0.2096420D+02 0.4803310D+01 0.1459330D+01 0.4834560D+00 0.4834560D+00
EXPONENTS  0.4834560D+00 0.4834560D+00 0.1455850D+00 0.1455850D+00 0.1455850D+00
EXPONENTS  0.1455850D+00 0.4380000D-01 0.4380000D-01 0.4380000D-01 0.4380000D-01
EXPONENTS  0.6260000D+00 0.6260000D+00 0.6260000D+00 0.6260000D+00 0.6260000D+00
EXPONENTS  0.6260000D+00 0.3386500D+02 0.5094790D+01 0.1158790D+01 0.3258400D+00
EXPONENTS  0.1027410D+00 0.3600000D-01 0.7500000D+00 0.7500000D+00 0.7500000D+00
EXPONENTS  0.3386500D+02 0.5094790D+01 0.1158790D+01 0.3258400D+00 0.1027410D+00
EXPONENTS  0.3600000D-01 0.7500000D+00 0.7500000D+00 0.7500000D+00 0.3386500D+02
EXPONENTS  0.5094790D+01 0.1158790D+01 0.3258400D+00 0.1027410D+00 0.3600000D-01
EXPONENTS  0.7500000D+00 0.7500000D+00 0.7500000D+00 0.4397000D+06 0.6603000D+05
EXPONENTS  0.1514000D+05 0.4317000D+04 0.1414000D+04 0.5239000D+03 0.5239000D+03
EXPONENTS  0.2077000D+03 0.8654000D+02 0.3052000D+02 0.1298000D+02 0.4412000D+01
EXPONENTS  0.1862000D+01 0.3932000D+00 0.1400000D+00 0.3500000D-01 0.3500000D-01
EXPONENTS  0.3500000D-01 0.3500000D-01 0.2957000D+04 0.7003000D+03 0.2246000D+03
EXPONENTS  0.2957000D+04 0.7003000D+03 0.2246000D+03 0.2957000D+04 0.7003000D+03
EXPONENTS  0.2246000D+03 0.8259000D+02 0.3319000D+02 0.1420000D+02 0.8259000D+02
EXPONENTS  0.3319000D+02 0.1420000D+02 0.8259000D+02 0.3319000D+02 0.1420000D+02
EXPONENTS  0.1420000D+02 0.7438000D+01 0.3526000D+01 0.1420000D+02 0.7438000D+01
EXPONENTS  0.3526000D+01 0.1420000D+02 0.7438000D+01 0.3526000D+01 0.1595000D+01
EXPONENTS  0.1595000D+01 0.1595000D+01 0.8462000D+00 0.8462000D+00 0.8462000D+00
EXPONENTS  0.3186000D+00 0.3186000D+00 0.3186000D+00 0.1096000D+00 0.1096000D+00
EXPONENTS  0.1096000D+00 0.1348000D+03 0.3639000D+02 0.1216000D+02 0.4341000D+01
EXPONENTS  0.1348000D+03 0.3639000D+02 0.1216000D+02 0.4341000D+01 0.1348000D+03
EXPONENTS  0.3639000D+02 0.1216000D+02 0.4341000D+01 0.1348000D+03 0.3639000D+02
EXPONENTS  0.1216000D+02 0.4341000D+01 0.1348000D+03 0.3639000D+02 0.1216000D+02
EXPONENTS  0.4341000D+01 0.1348000D+03 0.3639000D+02 0.1216000D+02 0.4341000D+01
EXPONENTS  0.1535000D+01 0.1535000D+01 0.1535000D+01 0.1535000D+01 0.1535000D+01
EXPONENTS  0.1535000D+01 0.4510000D+00 0.4510000D+00 0.4510000D+00 0.4510000D+00
EXPONENTS  0.4510000D+00 0.4510000D+00 0.1058190D+06 0.1587200D+05 0.3619650D+04
EXPONENTS  0.1030800D+04 0.3399080D+03 0.1245380D+03 0.1245380D+03 0.4951350D+02
EXPONENTS  0.2080560D+02 0.6583460D+01 0.2564680D+01 0.5597630D+00 0.1832730D+00
EXPONENTS  0.4830000D-01 0.4830000D-01 0.4830000D-01 0.4830000D-01 0.5897760D+03
EXPONENTS  0.1398490D+03 0.4514130D+02 0.1687330D+02 0.2771520D+01 0.5897760D+03
EXPONENTS  0.1398490D+03 0.4514130D+02 0.1687330D+02 0.2771520D+01 0.5897760D+03
EXPONENTS  0.1398490D+03 0.4514130D+02 0.1687330D+02 0.2771520D+01 0.6741100D+01
EXPONENTS  0.2771520D+01 0.6741100D+01 0.2771520D+01 0.6741100D+01 0.2771520D+01
EXPONENTS  0.1023870D+01 0.1023870D+01 0.1023870D+01 0.3813680D+00 0.3813680D+00
EXPONENTS  0.3813680D+00 0.1094370D+00 0.1094370D+00 0.1094370D+00 0.7500000D+00
EXPONENTS  0.7500000D+00 0.7500000D+00 0.7500000D+00 0.7500000D+00 0.7500000D+00
MO    1     MO 0.0        OCC NO =    2.0000000  ORB. ENERGY = -482.554896
 -0.26117461D-07 -0.48620078D-07 -0.79979571D-07 -0.10739914D-06 -0.10112034D-06
 -0.83097315D-08  0.78686600D-07  0.20908503D-06 -0.28186123D-09 -0.31575143D-05
 -0.29546554D-05 -0.22884948D-05 -0.16455710D-08 -0.15398491D-08 -0.11926726D-08
 -0.73675801D-07 -0.68942397D-07 -0.53398551D-07 -0.53586162D-06  0.28381564D-05
  0.18279379D-08  0.66139736D-07  0.19352069D-05 -0.31238164D-05 -0.12883386D-08
 -0.72971615D-07  0.37369422D-05 -0.98605487D-06 -0.50086851D-09 -0.23011549D-07
 -0.13734857D-06  0.68885704D-07  0.68462867D-07 -0.60751107D-09 -0.95118437D-08
  0.26648633D-10  0.15903856D-06  0.28688288D-06  0.42294098D-06 -0.17609539D-05
 -0.19551830D-05 -0.16814528D-05  0.13511279D-05 -0.55914536D-06 -0.86620305D-06
  0.15901605D-06  0.28684227D-06  0.42288112D-06 -0.17608423D-05 -0.19550286D-05
 -0.16815578D-05  0.13081749D-05 -0.49703024D-06  0.96381883D-06  0.15912418D-06
  0.28703731D-06  0.42316866D-06 -0.17613665D-05 -0.19557531D-05 -0.16810381D-05
  0.13310220D-05  0.10589508D-05 -0.46737185D-08  0.38584360D+01  0.71955610D+01
  0.12109067D+02  0.19065834D+02  0.25289925D+02  0.16475087D+02  0.96359570D+01
  0.16238835D+02  0.34607840D+01  0.81717851D-01 -0.11302128D-01  0.24784625D-02
 -0.63802582D-03  0.68317188D-04 -0.19377254D-04  0.20803547D-05  0.32529603D-06
  0.15887884D-09  0.75927404D-08  0.11802696D-03  0.15785264D-03  0.18233197D-03
  0.54307436D-07  0.72632322D-07  0.83895936D-07  0.27653201D-05  0.36984184D-05
  0.42719585D-05  0.32818824D-04  0.15479535D-04  0.27356809D-05  0.12741217D-07
  0.60096035D-08  0.10620705D-08  0.76860972D-06  0.36252734D-06  0.64069051D-07
 -0.25329576D-05 -0.52914689D-05 -0.33718495D-05 -0.14866339D-08 -0.31056488D-08
 -0.19789931D-08 -0.59085001D-07 -0.12343138D-06 -0.78653401D-07  0.89542419D-05
  0.54813145D-08  0.20876381D-06 -0.71674725D-05 -0.44241604D-08 -0.16708872D-06
  0.32831212D-05  0.20239901D-08  0.76534431D-07 -0.18065955D-05 -0.10934194D-08
 -0.42118678D-07 -0.50616257D-04 -0.37730863D-04 -0.17489994D-04 -0.40895836D-05
  0.25327908D-04  0.18880176D-04  0.87518317D-05  0.20463899D-05  0.25288349D-04
  0.18850687D-04  0.87381623D-05  0.20431937D-05 -0.98766355D-07 -0.73623377D-07
 -0.34127829D-07 -0.79799118D-08 -0.35393045D-05 -0.26383028D-05 -0.12229749D-05
 -0.28596112D-06 -0.23214280D-08 -0.17304615D-08 -0.80214865D-09 -0.18756175D-09
  0.39327239D-05 -0.19678949D-05 -0.19648290D-05  0.76595420D-08  0.27501247D-06
  0.19110113D-09 -0.93795680D-06  0.46934396D-06  0.46861283D-06 -0.18205392D-08
 -0.65593120D-07 -0.46334995D-10  0.58215279D-07  0.10871157D-06  0.18505730D-06
  0.28686982D-06  0.38629984D-06  0.29279114D-06 -0.21169638D-06 -0.49312863D-06
 -0.12028568D-06  0.78576193D-06 -0.74489938D-06  0.42691469D-06  0.13312037D-06
  0.38656600D-05 -0.32483040D-06 -0.13809235D-09 -0.75865404D-08  0.10327347D-05
  0.13224831D-05  0.14150428D-05  0.11259679D-05  0.25914755D-06 -0.59929647D-09
 -0.76743765D-09 -0.82115006D-09 -0.65339978D-09 -0.15038346D-09  0.24362476D-07
  0.31197716D-07  0.33381222D-07  0.26561873D-07  0.61133572D-08 -0.83345223D-06
  0.17319158D-06  0.57482487D-09 -0.11944875D-09 -0.19682642D-07  0.40900579D-08
 -0.25157939D-06  0.12165390D-09 -0.59291958D-08 -0.12401842D-06 -0.17090691D-09
 -0.28687292D-08 -0.96468942D-06 -0.44038576D-09 -0.22523344D-07  0.66904574D-06
 -0.33477013D-06 -0.33427561D-06  0.89894722D-09  0.46879446D-07  0.28370133D-10
MO    2     MO 0.0        OCC NO =    2.0000000  ORB. ENERGY = -101.411248
  0.18367368D-05  0.34192561D-05  0.56246441D-05  0.75529531D-05  0.71113900D-05
  0.58439026D-06 -0.43253278D-05 -0.11493206D-04  0.15493645D-07  0.52236794D-04
  0.48880769D-04  0.37860045D-04  0.25732985D-07  0.24079734D-07  0.18650685D-07
  0.12192011D-05  0.11408718D-05  0.88364931D-06 -0.51469504D-05 -0.27405061D-04
 -0.14298322D-07 -0.63946552D-06  0.59082524D-04  0.25427002D-04  0.12613930D-07
  0.59342436D-06 -0.12273635D-03 -0.27092122D-04 -0.13274699D-07 -0.63233594D-06
 -0.14536775D-04  0.72737498D-05  0.72630253D-05 -0.19740107D-07 -0.10185679D-05
 -0.66871905D-09  0.72661853D-06  0.13107162D-05  0.19323411D-05 -0.23834553D-04
  0.29125713D-05  0.36957470D-05 -0.12635122D-04 -0.90421456D-05 -0.14794084D-04
  0.72660633D-06  0.13106941D-05  0.19323087D-05 -0.23834511D-04  0.29125461D-05
  0.36959651D-05 -0.13326622D-04 -0.80421185D-05  0.14765803D-04  0.72668370D-06
  0.13108337D-05  0.19325144D-05 -0.23834539D-04  0.29126180D-05  0.36948909D-05
 -0.12969085D-04  0.17064382D-04 -0.88015310D-06  0.29847575D-07  0.55662461D-07
  0.93671709D-07  0.14748694D-06  0.19563443D-06  0.12744579D-06 -0.10247885D-05
 -0.17270077D-05 -0.36805600D-06  0.62417959D-05 -0.88232913D-05  0.84340195D-05
 -0.59302574D-05  0.42575810D-05 -0.60684315D-05 -0.12889141D-04 -0.20212697D-05
 -0.13444404D-08 -0.47096529D-07 -0.89859505D-05 -0.12018068D-04 -0.13881796D-04
 -0.71926962D-08 -0.96197181D-08 -0.11111517D-07 -0.20910174D-06 -0.27965866D-06
 -0.32302733D-06  0.28223399D-04  0.13312028D-04  0.23526197D-05  0.22707751D-07
  0.10710482D-07  0.18928515D-08  0.65672897D-06  0.30975696D-06  0.54743000D-07
 -0.34173496D-05 -0.71390057D-05 -0.45491438D-05 -0.27652581D-08 -0.57767555D-08
 -0.36810857D-08 -0.79514460D-07 -0.16610949D-06 -0.10584891D-06  0.11689234D-04
  0.97442337D-08  0.27191679D-06 -0.80063064D-05 -0.70080819D-08 -0.18616600D-06
  0.19763104D-05  0.21199189D-08  0.45863224D-07 -0.19031910D-05 -0.15167803D-08
 -0.44286594D-07  0.12266556D-03  0.91438557D-04  0.42385986D-04  0.99108686D-05
 -0.61382779D-04 -0.45756549D-04 -0.21210269D-04 -0.49594739D-05 -0.61282783D-04
 -0.45682009D-04 -0.21175717D-04 -0.49513947D-05  0.14569303D-06  0.10860391D-06
  0.50342920D-07  0.11771392D-07  0.85996147D-05  0.64104085D-05  0.29715198D-05
  0.69481319D-06  0.34840123D-08  0.25970864D-08  0.12038692D-08  0.28149374D-09
 -0.94766874D-05  0.47422004D-05  0.47344871D-05 -0.11259735D-07 -0.66437321D-06
 -0.27054077D-09  0.22169090D-05 -0.11093506D-05 -0.11075584D-05  0.26151776D-08
  0.15542298D-06  0.64330279D-10  0.12702088D+01  0.23719958D+01  0.40377958D+01
  0.62592602D+01  0.84287402D+01  0.63884585D+01  0.23318112D+01  0.54317549D+01
  0.13249329D+01  0.43928476D-01 -0.57170771D-02  0.69102641D-03 -0.22957545D-03
  0.15397569D-03 -0.23622585D-04 -0.10943163D-07 -0.55150311D-06 -0.91596611D-03
 -0.11729535D-02 -0.12550476D-02 -0.99865774D-03 -0.22984643D-03 -0.43204536D-06
 -0.55326186D-06 -0.59198426D-06 -0.47104957D-06 -0.10841458D-06 -0.21383380D-04
 -0.27382793D-04 -0.29299295D-04 -0.23313830D-04 -0.53658028D-05  0.18818505D-03
 -0.39104899D-04  0.88385400D-07 -0.18366508D-07  0.43933553D-05 -0.91294030D-06
  0.67521832D-04  0.31752873D-07  0.15763335D-05 -0.52906197D-05 -0.24356595D-08
 -0.12352670D-06  0.19925791D-04  0.93231170D-08  0.46517698D-06 -0.15867903D-04
  0.79404852D-05  0.79274181D-05 -0.22715589D-07 -0.11115360D-05 -0.51335761D-09
MO    3     MO 0.0        OCC NO =    2.0000000  ORB. ENERGY =  -62.207914
 -0.23341687D-06 -0.43452718D-06 -0.71479312D-06 -0.95984719D-06 -0.90373232D-06
 -0.74265701D-07  0.95763404D-06  0.25446130D-05 -0.34303160D-08 -0.43527174D-04
 -0.40730710D-04 -0.31547509D-04 -0.22699850D-07 -0.21241467D-07 -0.16452337D-07
 -0.10156364D-05 -0.95038542D-06 -0.73611025D-06 -0.76748094D-05  0.39973708D-04
  0.25633559D-07  0.93156410D-06  0.27342282D-04 -0.44219719D-04 -0.18234171D-07
 -0.10329628D-05  0.53900176D-04 -0.13995860D-04 -0.71065870D-08 -0.32662221D-06
 -0.19725791D-05  0.98928682D-06  0.98329227D-06 -0.84780874D-08 -0.13666960D-06
  0.37888930D-09  0.21870395D-05  0.39451073D-05  0.58161280D-05 -0.24688229D-04
 -0.27956757D-04 -0.24068549D-04  0.18942656D-04 -0.77865679D-05 -0.12059780D-04
  0.21867271D-05  0.39445437D-05  0.58152972D-05 -0.24686682D-04 -0.27954555D-04
 -0.24070045D-04  0.18344476D-04 -0.69215555D-05  0.13425092D-04  0.21882264D-05
  0.39472483D-05  0.58192844D-05 -0.24693940D-04 -0.27964900D-04 -0.24062628D-04
  0.18662732D-04  0.14747007D-04 -0.62128184D-07 -0.12742143D+01 -0.23762702D+01
 -0.39989121D+01 -0.62963225D+01 -0.83517734D+01 -0.54407515D+01 -0.53839912D+01
 -0.90732809D+01 -0.19336772D+01  0.58198791D+01  0.24292331D+01  0.10306288D+00
 -0.10904410D-01  0.99168488D-03 -0.27852499D-03  0.29811152D-04  0.46448186D-05
  0.22678403D-08  0.10841479D-06  0.25907746D-02  0.34649763D-02  0.40023149D-02
 -0.92240141D-06 -0.12336461D-05 -0.14249564D-05  0.61497824D-04  0.82248953D-04
  0.95003886D-04  0.38370138D-02  0.18097903D-02  0.31984221D-03 -0.11106374D-05
 -0.52385031D-06 -0.92579477D-07  0.90973988D-04  0.42909370D-04  0.75833247D-05
 -0.20823991D-04 -0.43502308D-04 -0.27720703D-04 -0.22973744D-07 -0.47993244D-07
 -0.30582434D-07 -0.48136267D-06 -0.10055895D-05 -0.64078549D-06  0.11349189D-03
  0.75836043D-07  0.26429569D-05 -0.96520225D-04 -0.60843250D-07 -0.22492895D-05
  0.45951315D-04  0.28350719D-07  0.10711455D-05 -0.25596709D-04 -0.15486287D-07
 -0.59675569D-06 -0.50120999D-03 -0.37361683D-03 -0.17318862D-03 -0.40495688D-04
  0.25081398D-03  0.18696420D-03  0.86666524D-04  0.20264729D-04  0.25039601D-03
  0.18665263D-03  0.86522097D-04  0.20230959D-04 -0.10360398D-05 -0.77229488D-06
 -0.35799427D-06 -0.83707719D-07 -0.34986880D-04 -0.26080260D-04 -0.12089403D-04
 -0.28267947D-05  0.25728800D-08  0.19179012D-08  0.88903562D-09  0.20787803D-09
  0.51805999D-04 -0.25923395D-04 -0.25882604D-04  0.10231644D-06  0.36214958D-05
  0.20178792D-08 -0.12937689D-04  0.64739041D-05  0.64637851D-05 -0.25112186D-07
 -0.90471917D-06 -0.58353137D-09  0.17456677D-06  0.32598706D-06  0.55492054D-06
  0.86021983D-06  0.11583748D-05  0.87797575D-06 -0.18064083D-05 -0.42078737D-05
 -0.10263994D-05  0.95421785D-05 -0.97740460D-05  0.59403153D-05  0.18217806D-05
  0.54736866D-04 -0.45872788D-05 -0.19488853D-08 -0.10713795D-06  0.12102874D-04
  0.15498508D-04  0.16583238D-04  0.13195498D-04  0.30370145D-05 -0.68122066D-08
 -0.87234684D-08 -0.93340176D-08 -0.74271992D-08 -0.17094097D-08  0.28545665D-06
  0.36554559D-06  0.39112986D-06  0.31122712D-06  0.71630588D-07 -0.91080208D-05
  0.18926489D-05  0.59173761D-08 -0.12296322D-08 -0.21500470D-06  0.44678029D-07
 -0.32039148D-05  0.15664723D-08 -0.75512724D-07 -0.18327016D-05 -0.24034943D-08
 -0.42422160D-07 -0.13677803D-04 -0.62471763D-08 -0.31934524D-06  0.94771138D-05
 -0.47420648D-05 -0.47350491D-05  0.12745513D-07  0.66404979D-06  0.40039768D-09
MO    4     MO 0.0        OCC NO =    2.0000000  ORB. ENERGY =  -56.025720
  0.35110738D-05  0.65361898D-05  0.10751971D-04  0.14438092D-04  0.13594008D-04
  0.11171101D-05 -0.10174300D-04 -0.27035020D-04  0.36445096D-07 -0.21043085D-04
 -0.19691143D-04 -0.15251552D-04 -0.20990095D-07 -0.19641557D-07 -0.15213145D-07
 -0.48754485D-06 -0.45622186D-06 -0.35336146D-06  0.26263608D-04 -0.97278548D-05
  0.74867409D-08 -0.23052403D-06  0.33468433D-04 -0.16434999D-05 -0.49315642D-08
 -0.36448376D-07  0.10151823D-03  0.43890101D-04  0.23199660D-07  0.10237839D-05
 -0.36812097D-04  0.18425864D-04  0.18386233D-04 -0.53687329D-07 -0.25787278D-05
  0.15676107D-09  0.90681803D-05  0.16357703D-04  0.24115566D-04 -0.55441204D-04
  0.11953960D-04 -0.39479522D-05  0.25166679D-04 -0.25808528D-04 -0.40862651D-04
  0.90687463D-05  0.16358725D-04  0.24117072D-04 -0.55443203D-04  0.11950026D-04
 -0.39435857D-05  0.23200187D-04 -0.22951656D-04  0.43640049D-04  0.90667169D-05
  0.16355064D-04  0.24111675D-04 -0.55434037D-04  0.11953191D-04 -0.39468671D-05
  0.24187278D-04  0.48819713D-04 -0.10892596D-05  0.40794416D-04  0.76077124D-04
  0.12802657D-03  0.20157897D-03  0.26738496D-03  0.17418757D-03  0.18312240D-03
  0.30860395D-03  0.65768980D-04 -0.24459437D-03 -0.30691041D-05 -0.79492615D-04
  0.55113786D-04 -0.28926310D-04  0.19756636D-04  0.34389705D-04 -0.26320980D-05
 -0.60563083D-09 -0.62497160D-07  0.87688932D+02  0.11727769D+03  0.13546478D+03
  0.43749514D-01  0.58511855D-01  0.67585706D-01  0.20560445D+01  0.27498128D+01
  0.31762459D+01  0.11275223D+03  0.53181433D+02  0.93986949D+01  0.56253967D-01
  0.26533104D-01  0.46891657D-02  0.26437042D+01  0.12469463D+01  0.22037143D+00
  0.10010842D+00  0.20913125D+00  0.13326339D+00  0.49955680D-04  0.10435979D-03
  0.66500534D-04  0.23472344D-02  0.49034841D-02  0.31246164D-02 -0.37454016D-01
 -0.18716605D-04 -0.87815071D-03  0.10471896D-01  0.52445602D-05  0.24550975D-03
 -0.10732637D-02 -0.54084153D-06 -0.25156932D-04  0.12256903D-03  0.63020024D-07
  0.28711290D-05  0.55564709D-03  0.41419586D-03  0.19199887D-03  0.44893980D-04
 -0.27805974D-03 -0.20727400D-03 -0.96081051D-04 -0.22466073D-04 -0.27758735D-03
 -0.20692187D-03 -0.95917823D-04 -0.22427907D-04  0.42772287D-06  0.31883735D-06
  0.14779581D-06  0.34558234D-07  0.39191889D-04  0.29214800D-04  0.13542406D-04
  0.31665421D-05  0.64363346D-07  0.47978351D-07  0.22240177D-07  0.52002913D-08
 -0.15447788D-04  0.77307230D-05  0.77170647D-05 -0.27930101D-07 -0.10836638D-05
 -0.26121612D-08  0.31215385D-05 -0.15621266D-05 -0.15594119D-05  0.72078962D-08
  0.21813741D-06  0.41205783D-09 -0.21052944D-06 -0.39314398D-06 -0.66924028D-06
 -0.10374346D-05 -0.13970128D-05 -0.10588484D-05  0.23346763D-05  0.54384289D-05
  0.13265608D-05 -0.12887874D-04  0.13950920D-04 -0.12743824D-04  0.15826207D-04
 -0.16072164D-03  0.17010597D-04  0.65943425D-08  0.39734165D-06 -0.84876801D-04
 -0.10869020D-03 -0.11629735D-03 -0.92539312D-04 -0.21298418D-04 -0.41136174D-07
 -0.52677515D-07 -0.56364377D-07 -0.44849868D-07 -0.10322437D-07 -0.19854758D-05
 -0.25425294D-05 -0.27204792D-05 -0.21647207D-05 -0.49822205D-06  0.64487831D-04
 -0.13400587D-04  0.31202854D-07 -0.64839607D-08  0.15087362D-05 -0.31351576D-06
  0.25087622D-04  0.12195034D-07  0.58666195D-06 -0.13429638D-04 -0.65948794D-08
 -0.31401261D-06  0.12139092D-04  0.66328734D-08  0.28335557D-06 -0.12177626D-06
  0.60808817D-07  0.60967440D-07  0.38769436D-10 -0.85540878D-08 -0.13575502D-09
MO    5     MO 0.0        OCC NO =    2.0000000  ORB. ENERGY =  -56.025648
  0.44370329D-09  0.82599486D-09  0.13587538D-08  0.18245783D-08  0.17179092D-08
  0.14117204D-09 -0.14236168D-08 -0.37828164D-08  0.50995007D-11 -0.64592892D-07
 -0.60443032D-07 -0.46815465D-07  0.96146599D-05  0.89969528D-05  0.69684877D-05
  0.26151369D-05  0.24471239D-05  0.18953920D-05  0.50899590D-08  0.25965065D-07
 -0.41094383D-05 -0.11190097D-05 -0.71299182D-08 -0.56776966D-07  0.87411075D-05
  0.23769101D-05  0.87500572D-08  0.20200659D-07 -0.20836202D-05 -0.56633167D-06
  0.30703648D-07 -0.55266981D-06  0.52196616D-06 -0.49224013D-05 -0.13609919D-05
  0.30925897D-06 -0.60311472D-06 -0.10879329D-05 -0.16038999D-05  0.91250747D-06
  0.14610014D-04 -0.16209939D-04 -0.12329970D-04 -0.60968440D-06  0.98606235D-05
 -0.18271619D-06 -0.32959394D-06 -0.48590835D-06  0.27624466D-06  0.44356596D-05
 -0.49174848D-05 -0.35216512D-05 -0.62552824D-05 -0.62687147D-05  0.78667736D-06
  0.14190537D-05  0.20920592D-05 -0.11904290D-05 -0.19027913D-04  0.21125598D-04
  0.15820022D-04  0.10725029D-04 -0.25435761D-05 -0.31653383D-07 -0.59030096D-07
 -0.99338941D-07 -0.15641004D-06 -0.20747051D-06 -0.13515638D-06 -0.13294466D-06
 -0.22404276D-06 -0.47747490D-07  0.14990545D-06  0.58054040D-07 -0.25297733D-08
  0.34626162D-08 -0.24718816D-08  0.22411641D-08  0.59786070D-08  0.56419820D-07
 -0.80713667D-05 -0.21940795D-05 -0.58169089D+00 -0.77797007D+00 -0.89861546D+00
  0.84639812D+02  0.11319971D+03  0.13075440D+03  0.23007722D+02  0.30771187D+02
  0.35543095D+02 -0.74795305D+00 -0.35278429D+00 -0.62347172D-01  0.10883203D+03
  0.51332409D+02  0.90719190D+01  0.29583917D+02  0.13953738D+02  0.24660285D+01
 -0.66363408D-03 -0.13863631D-02 -0.88342348D-03  0.96564095D-01  0.20172698D+00
  0.12854522D+00  0.26249113D-01  0.54835644D-01  0.34942573D-01  0.24690833D-03
 -0.35929828D-01 -0.97668439D-02 -0.68306167D-04  0.99410326D-02  0.27022826D-02
  0.67257685D-05 -0.97926472D-03 -0.26619493D-03 -0.67123733D-06  0.97983453D-04
  0.26635129D-04 -0.41946269D-05 -0.31267996D-05 -0.14494157D-05 -0.33890845D-06
 -0.25869452D-05 -0.19283858D-05 -0.89389572D-06 -0.20901444D-06  0.67815720D-05
  0.50551854D-05  0.23433115D-05  0.54792289D-06  0.65141340D-03  0.48558292D-03
  0.22509006D-03  0.52631501D-04  0.17693223D-03  0.13189055D-03  0.61137348D-04
  0.14295391D-04  0.17288947D-04  0.12887695D-04  0.59740406D-05  0.13968752D-05
  0.49434232D-07  0.13301976D-06 -0.18245400D-06 -0.83737007D-05 -0.22726300D-05
 -0.29728065D-06 -0.59333249D-08 -0.37538149D-07  0.43471474D-07  0.10413770D-05
  0.28187857D-06  0.53236132D-07 -0.49574458D-10 -0.92575650D-10 -0.15758948D-09
 -0.24429010D-09 -0.32896184D-09 -0.24933252D-09  0.55065781D-09  0.12827103D-08
  0.31288323D-09 -0.30279730D-08  0.32502732D-08 -0.30401186D-08  0.35077391D-08
 -0.21415365D-07  0.77836166D-08 -0.79516882D-06 -0.21612001D-06  0.24533052D-06
  0.31416150D-06  0.33614944D-06  0.26747848D-06  0.61561605D-07 -0.39354613D-04
 -0.50396111D-04 -0.53923299D-04 -0.42907470D-04 -0.98753841D-05 -0.10698742D-04
 -0.13700427D-04 -0.14659309D-04 -0.11664603D-04 -0.26846709D-05 -0.19800492D-06
  0.41145471D-07  0.31673078D-04 -0.65816734D-05  0.86104689D-05 -0.17892575D-05
 -0.61224249D-07  0.99130551D-05  0.26949303D-05  0.31738560D-07 -0.51497723D-05
 -0.14000165D-05 -0.90883669D-08  0.16332689D-05  0.44398835D-06 -0.29203736D-08
  0.48837149D-06 -0.48545112D-06  0.38097709D-06  0.12451598D-06 -0.36649149D-06
MO    6     MO 0.0        OCC NO =    2.0000000  ORB. ENERGY =  -56.025648
 -0.66270708D-09 -0.12336907D-08 -0.20294097D-08 -0.27251566D-08 -0.25658377D-08
 -0.21085196D-09  0.19954240D-08  0.53022153D-08 -0.71477566D-11 -0.22137849D-06
 -0.20715573D-06 -0.16045012D-06 -0.26148895D-05 -0.24468923D-05 -0.18952126D-05
  0.96196208D-05  0.90015949D-05  0.69720832D-05 -0.59160429D-08  0.97931775D-07
  0.11180295D-05 -0.41174268D-05 -0.15820425D-09 -0.20433465D-06 -0.23771162D-05
  0.87423525D-05 -0.16759483D-07  0.39874893D-07  0.56659639D-06 -0.20836341D-05
  0.12003774D-06  0.20987007D-06 -0.32990782D-06  0.13100499D-05 -0.48997640D-05
  0.11345133D-05 -0.56116709D-06 -0.10122654D-05 -0.14923460D-05  0.85462355D-06
  0.13545504D-04 -0.15038105D-04 -0.11301040D-04  0.94417252D-05  0.29152447D-05
  0.80137841D-06  0.14455723D-05  0.21311546D-05 -0.12080075D-05 -0.19428605D-04
  0.21559069D-04  0.15879377D-04 -0.68703933D-05  0.91901377D-05 -0.24393397D-06
 -0.44002208D-06 -0.64870853D-06  0.37425048D-06  0.58691274D-05 -0.65186016D-05
 -0.46736391D-05 -0.36207148D-05 -0.82504503D-05  0.21323233D-07  0.39765497D-07
  0.66919462D-07  0.10536529D-06  0.13976206D-06  0.91047805D-07  0.88382249D-07
  0.14894470D-06  0.31742760D-07 -0.95104956D-07 -0.46919175D-07  0.99969684D-08
 -0.84643092D-08  0.48016535D-08 -0.35606348D-08 -0.73663354D-08  0.18691167D-06
  0.21947678D-05 -0.80694901D-05 -0.19725303D+01 -0.26381186D+01 -0.30472305D+01
 -0.23015032D+02 -0.30780964D+02 -0.35554388D+02  0.84616835D+02  0.11316898D+03
  0.13071890D+03 -0.25363298D+01 -0.11963014D+01 -0.21142101D+00 -0.29593317D+02
 -0.13958172D+02 -0.24668120D+01  0.10880249D+03  0.51318474D+02  0.90694563D+01
 -0.22504381D-02 -0.47012722D-02 -0.29957622D-02 -0.26257451D-01 -0.54853062D-01
 -0.34953673D-01  0.96537883D-01  0.20167223D+00  0.12851033D+00  0.83738648D-03
  0.97699425D-02 -0.35920084D-01 -0.23170608D-03 -0.27031395D-02  0.99383412D-02
  0.22831520D-04  0.26627942D-03 -0.97900131D-03 -0.22872640D-05 -0.26643502D-04
  0.97957660D-04 -0.15380668D-04 -0.11465207D-04 -0.53146519D-05 -0.12426942D-05
  0.93952844D-06  0.70035243D-06  0.32464563D-06  0.75910000D-07  0.14441139D-04
  0.10764855D-04  0.49900063D-05  0.11667842D-05 -0.17719431D-03 -0.13208590D-03
 -0.61227904D-04 -0.14316565D-04  0.65098242D-03  0.48526165D-03  0.22494114D-03
  0.52596679D-04  0.29255802D-06  0.21808145D-06  0.10109080D-06  0.23637474D-07
  0.20122215D-06 -0.51189911D-07 -0.15003224D-06  0.22816135D-05 -0.83747217D-05
 -0.19443075D-06 -0.25376488D-07  0.14675463D-07  0.10701025D-07 -0.28489398D-06
  0.10427736D-05  0.67115152D-07  0.51554938D-10  0.96274010D-10  0.16388511D-09
  0.25404939D-09  0.34210373D-09  0.25929326D-09 -0.57217410D-09 -0.13328307D-08
 -0.32510877D-09  0.31528018D-08 -0.33995404D-08  0.31464306D-08 -0.37586030D-08
  0.30779529D-07  0.15154033D-07  0.21622623D-06 -0.79514222D-06  0.93590444D-06
  0.11984858D-05  0.12823669D-05  0.10203961D-05  0.23484962D-06  0.10701334D-04
  0.13703745D-04  0.14662861D-04  0.11667429D-04  0.26853213D-05 -0.39345233D-04
 -0.50384099D-04 -0.53910446D-04 -0.42897243D-04 -0.98730303D-05 -0.75246498D-06
  0.15636241D-06 -0.86125654D-05  0.17896932D-05  0.31665557D-04 -0.65801106D-05
 -0.23650140D-06 -0.26955673D-05  0.99107010D-05  0.12294364D-06  0.14003360D-05
 -0.51486211D-05 -0.40465940D-07 -0.44410079D-06  0.16325890D-05 -0.85252893D-08
 -0.18773693D-06  0.19626222D-06 -0.78489690D-07  0.36571250D-06 -0.97875224D-06
MO    7     MO 0.0        OCC NO =    2.0000000  ORB. ENERGY =  -10.084283
  0.43814098D+00  0.81564010D+00  0.13417203D+01  0.18017052D+01  0.16963733D+01
  0.13940229D+00  0.37087898D+00  0.98549489D+00 -0.13285160D-02  0.32429510D-02
  0.30346031D-02  0.23504174D-02  0.16781859D-05  0.15703685D-05  0.12163111D-05
  0.75678033D-04  0.70815993D-04  0.54849724D-04  0.79348730D-02 -0.16639087D-02
 -0.82972835D-06 -0.38842933D-04 -0.15039985D-02 -0.63052885D-04 -0.35647525D-07
 -0.14703002D-05 -0.68717949D-03  0.78884508D-04  0.41421592D-07  0.18408109D-05
 -0.12465905D-02  0.62378768D-03  0.62280284D-03 -0.16550782D-05 -0.87351464D-04
 -0.39165310D-07  0.56488886D-04  0.10189789D-03  0.15022435D-03 -0.12877741D-02
  0.73115419D-03  0.29055652D-04 -0.50870817D-03 -0.12081156D-02 -0.19501488D-02
  0.56489358D-04  0.10189874D-03  0.15022560D-03 -0.12877832D-02  0.73115777D-03
  0.29051199D-04 -0.60103802D-03 -0.10744359D-02  0.20014434D-02  0.56491080D-04
  0.10190185D-03  0.15023019D-03 -0.12877123D-02  0.73113105D-03  0.29070478D-04
 -0.55370609D-03  0.22817478D-02 -0.90133074D-04 -0.21976000D-06 -0.40982836D-06
 -0.68968064D-06 -0.10859083D-05 -0.14404059D-05 -0.93835047D-06  0.33710938D-05
  0.56810794D-05  0.12107389D-05 -0.31553066D-04  0.56652564D-04 -0.68800587D-04
  0.52482415D-04 -0.10791681D-04  0.23070538D-04  0.11619402D-03  0.19259867D-04
  0.11384169D-07  0.44907591D-06 -0.13819846D-03 -0.18483059D-03 -0.21349359D-03
 -0.10535790D-06 -0.14090867D-06 -0.16276039D-06 -0.32167157D-05 -0.43021278D-05
 -0.49692896D-05 -0.51953966D-03 -0.24504938D-03 -0.43307302D-04 -0.39222206D-06
 -0.18499795D-06 -0.32694480D-07 -0.12093856D-04 -0.57042648D-05 -0.10081083D-05
  0.74345648D-04  0.15531159D-03  0.98968232D-04  0.55721053D-07  0.11640393D-06
  0.74175345D-07  0.17307220D-05  0.36155605D-05  0.23039209D-05 -0.33746539D-03
 -0.24625623D-06 -0.78575924D-05  0.29377181D-03  0.20834114D-06  0.68416505D-05
 -0.11035455D-03 -0.76631444D-07 -0.25704382D-05  0.27313827D-04  0.23213366D-07
  0.63521651D-06 -0.92971482D-03 -0.69303707D-03 -0.32125463D-03 -0.75117101D-04
  0.46533487D-03  0.34687445D-03  0.16079229D-03  0.37597127D-04  0.46437995D-03
  0.34616262D-03  0.16046233D-03  0.37519974D-04 -0.11374776D-05 -0.84790963D-06
 -0.39304520D-06 -0.91903473D-07 -0.65167378D-04 -0.48577701D-04 -0.22518004D-04
 -0.52652538D-05 -0.19344343D-08 -0.14419848D-08 -0.66842642D-09 -0.15629426D-09
  0.93131038D-04 -0.46613013D-04 -0.46518025D-04  0.11422548D-06  0.65278296D-05
  0.28394483D-09 -0.34832800D-04  0.17433632D-04  0.17399168D-04 -0.43456010D-07
 -0.24413888D-05 -0.24901806D-09 -0.11293287D-04 -0.21089154D-04 -0.35899599D-04
 -0.55650395D-04 -0.74939003D-04 -0.56799082D-04 -0.49304141D-04 -0.11484978D-03
 -0.28014565D-04  0.14298532D-03 -0.98927116D-04 -0.16641445D-04  0.22845139D-03
  0.63548040D-04 -0.49040169D-05 -0.65730154D-08 -0.11354035D-06  0.14813395D-02
  0.18969505D-02  0.20297167D-02  0.16150720D-02  0.37171746D-03  0.69763468D-06
  0.89336605D-06  0.95589210D-06  0.76061577D-06  0.17505979D-06  0.34582019D-04
  0.44284498D-04  0.47383938D-04  0.37704016D-04  0.86777811D-05 -0.81625908D-03
  0.16961884D-03 -0.38465780D-06  0.79931984D-07 -0.19055569D-04  0.39597519D-05
 -0.22901202D-03 -0.10514930D-06 -0.53471342D-05 -0.13604211D-03 -0.68012140D-07
 -0.31747578D-05 -0.75782212D-04 -0.33627937D-07 -0.17695156D-05  0.22383928D-03